   9   9   0   0
  0.6063641E+02  0.3550076E-09  0.3550076E-09  0.5000000E-08  0.5000000E-15
  1.000000000000000E-004
  CAR 
 unknown system                          
     11.16691675    -77.37873185  301      0.68901500      1.00000000
    -77.379  0.0000E+00  0.0000E+00
    -77.084  0.0000E+00  0.0000E+00
    -76.788  0.0000E+00  0.0000E+00
    -76.493  0.0000E+00  0.0000E+00
    -76.198  0.0000E+00  0.0000E+00
    -75.903  0.0000E+00  0.0000E+00
    -75.608  0.0000E+00  0.0000E+00
    -75.313  0.0000E+00  0.0000E+00
    -75.018  0.0000E+00  0.0000E+00
    -74.722  0.0000E+00  0.0000E+00
    -74.427  0.0000E+00  0.0000E+00
    -74.132  0.0000E+00  0.0000E+00
    -73.837  0.0000E+00  0.0000E+00
    -73.542  0.0000E+00  0.0000E+00
    -73.247  0.0000E+00  0.6000E+01
    -72.951  0.0000E+00  0.6000E+01
    -72.656  0.0000E+00  0.6000E+01
    -72.361  0.0000E+00  0.6000E+01
    -72.066  0.0000E+00  0.6000E+01
    -71.771  0.0000E+00  0.6000E+01
    -71.476  0.0000E+00  0.6000E+01
    -71.181  0.0000E+00  0.6000E+01
    -70.885  0.0000E+00  0.6000E+01
    -70.590  0.0000E+00  0.6000E+01
    -70.295  0.0000E+00  0.6000E+01
    -70.000  0.0000E+00  0.6000E+01
    -69.705  0.0000E+00  0.6000E+01
    -69.410  0.0000E+00  0.6000E+01
    -69.114  0.0000E+00  0.6000E+01
    -68.819  0.0000E+00  0.6000E+01
    -68.524  0.0000E+00  0.6000E+01
    -68.229  0.0000E+00  0.6000E+01
    -67.934  0.0000E+00  0.6000E+01
    -67.639  0.0000E+00  0.6000E+01
    -67.344  0.0000E+00  0.6000E+01
    -67.048  0.0000E+00  0.6000E+01
    -66.753  0.0000E+00  0.6000E+01
    -66.458  0.0000E+00  0.6000E+01
    -66.163  0.0000E+00  0.6000E+01
    -65.868  0.0000E+00  0.6000E+01
    -65.573  0.0000E+00  0.6000E+01
    -65.277  0.0000E+00  0.6000E+01
    -64.982  0.0000E+00  0.6000E+01
    -64.687  0.0000E+00  0.6000E+01
    -64.392  0.0000E+00  0.6000E+01
    -64.097  0.0000E+00  0.6000E+01
    -63.802  0.0000E+00  0.6000E+01
    -63.507  0.0000E+00  0.6000E+01
    -63.211  0.0000E+00  0.6000E+01
    -62.916  0.0000E+00  0.6000E+01
    -62.621  0.0000E+00  0.6000E+01
    -62.326  0.0000E+00  0.6000E+01
    -62.031  0.0000E+00  0.6000E+01
    -61.736  0.0000E+00  0.6000E+01
    -61.441  0.0000E+00  0.6000E+01
    -61.145  0.0000E+00  0.6000E+01
    -60.850  0.0000E+00  0.6000E+01
    -60.555  0.0000E+00  0.6000E+01
    -60.260  0.0000E+00  0.6000E+01
    -59.965  0.0000E+00  0.6000E+01
    -59.670  0.0000E+00  0.6000E+01
    -59.374  0.0000E+00  0.6000E+01
    -59.079  0.0000E+00  0.6000E+01
    -58.784  0.0000E+00  0.6000E+01
    -58.489  0.0000E+00  0.6000E+01
    -58.194  0.0000E+00  0.6000E+01
    -57.899  0.0000E+00  0.6000E+01
    -57.604  0.0000E+00  0.6000E+01
    -57.308  0.0000E+00  0.6000E+01
    -57.013  0.0000E+00  0.6000E+01
    -56.718  0.0000E+00  0.6000E+01
    -56.423  0.0000E+00  0.6000E+01
    -56.128  0.0000E+00  0.6000E+01
    -55.833  0.0000E+00  0.6000E+01
    -55.537  0.0000E+00  0.6000E+01
    -55.242  0.0000E+00  0.6000E+01
    -54.947  0.0000E+00  0.6000E+01
    -54.652  0.0000E+00  0.6000E+01
    -54.357  0.0000E+00  0.6000E+01
    -54.062  0.0000E+00  0.6000E+01
    -53.767  0.0000E+00  0.6000E+01
    -53.471  0.0000E+00  0.6000E+01
    -53.176  0.0000E+00  0.6000E+01
    -52.881  0.0000E+00  0.6000E+01
    -52.586  0.0000E+00  0.6000E+01
    -52.291  0.0000E+00  0.6000E+01
    -51.996  0.0000E+00  0.6000E+01
    -51.700  0.0000E+00  0.6000E+01
    -51.405  0.0000E+00  0.6000E+01
    -51.110  0.0000E+00  0.6000E+01
    -50.815  0.0000E+00  0.6000E+01
    -50.520  0.0000E+00  0.6000E+01
    -50.225  0.0000E+00  0.6000E+01
    -49.930  0.0000E+00  0.6000E+01
    -49.634  0.0000E+00  0.6000E+01
    -49.339  0.0000E+00  0.6000E+01
    -49.044  0.0000E+00  0.6000E+01
    -48.749  0.0000E+00  0.6000E+01
    -48.454  0.0000E+00  0.6000E+01
    -48.159  0.0000E+00  0.6000E+01
    -47.864  0.0000E+00  0.6000E+01
    -47.568  0.0000E+00  0.6000E+01
    -47.273  0.0000E+00  0.6000E+01
    -46.978  0.0000E+00  0.6000E+01
    -46.683  0.0000E+00  0.6000E+01
    -46.388  0.0000E+00  0.6000E+01
    -46.093  0.0000E+00  0.6000E+01
    -45.797  0.0000E+00  0.6000E+01
    -45.502  0.0000E+00  0.6000E+01
    -45.207  0.0000E+00  0.6000E+01
    -44.912  0.0000E+00  0.6000E+01
    -44.617  0.0000E+00  0.6000E+01
    -44.322  0.0000E+00  0.6000E+01
    -44.027  0.0000E+00  0.6000E+01
    -43.731  0.0000E+00  0.6000E+01
    -43.436  0.0000E+00  0.6000E+01
    -43.141  0.0000E+00  0.6000E+01
    -42.846  0.0000E+00  0.6000E+01
    -42.551  0.0000E+00  0.6000E+01
    -42.256  0.0000E+00  0.6000E+01
    -41.960  0.0000E+00  0.6000E+01
    -41.665  0.0000E+00  0.6000E+01
    -41.370  0.0000E+00  0.6000E+01
    -41.075  0.0000E+00  0.6000E+01
    -40.780  0.0000E+00  0.6000E+01
    -40.485  0.0000E+00  0.6000E+01
    -40.190  0.0000E+00  0.6000E+01
    -39.894  0.0000E+00  0.6000E+01
    -39.599  0.0000E+00  0.6000E+01
    -39.304  0.0000E+00  0.6000E+01
    -39.009  0.0000E+00  0.6000E+01
    -38.714  0.0000E+00  0.6000E+01
    -38.419  0.0000E+00  0.6000E+01
    -38.123  0.0000E+00  0.6000E+01
    -37.828  0.0000E+00  0.6000E+01
    -37.533  0.8488E+03  0.1831E+02
    -37.238  0.0000E+00  0.2400E+02
    -36.943  0.0000E+00  0.2400E+02
    -36.648  0.0000E+00  0.2400E+02
    -36.353  0.0000E+00  0.2400E+02
    -36.057  0.0000E+00  0.2400E+02
    -35.762  0.0000E+00  0.2400E+02
    -35.467  0.0000E+00  0.2400E+02
    -35.172  0.0000E+00  0.2400E+02
    -34.877  0.0000E+00  0.2400E+02
    -34.582  0.0000E+00  0.2400E+02
    -34.287  0.0000E+00  0.2400E+02
    -33.991  0.0000E+00  0.2400E+02
    -33.696  0.0000E+00  0.2400E+02
    -33.401  0.0000E+00  0.2400E+02
    -33.106  0.0000E+00  0.2400E+02
    -32.811  0.0000E+00  0.2400E+02
    -32.516  0.0000E+00  0.2400E+02
    -32.220  0.0000E+00  0.2400E+02
    -31.925  0.0000E+00  0.2400E+02
    -31.630  0.0000E+00  0.2400E+02
    -31.335  0.0000E+00  0.2400E+02
    -31.040  0.0000E+00  0.2400E+02
    -30.745  0.0000E+00  0.2400E+02
    -30.450  0.0000E+00  0.2400E+02
    -30.154  0.0000E+00  0.2400E+02
    -29.859  0.0000E+00  0.2400E+02
    -29.564  0.0000E+00  0.2400E+02
    -29.269  0.0000E+00  0.2400E+02
    -28.974  0.0000E+00  0.2400E+02
    -28.679  0.0000E+00  0.2400E+02
    -28.383  0.0000E+00  0.2400E+02
    -28.088  0.0000E+00  0.2400E+02
    -27.793  0.0000E+00  0.2400E+02
    -27.498  0.0000E+00  0.2400E+02
    -27.203  0.0000E+00  0.2400E+02
    -26.908  0.0000E+00  0.2400E+02
    -26.613  0.0000E+00  0.2400E+02
    -26.317  0.0000E+00  0.2400E+02
    -26.022  0.0000E+00  0.2400E+02
    -25.727  0.0000E+00  0.2400E+02
    -25.432  0.0000E+00  0.2400E+02
    -25.137  0.0000E+00  0.2400E+02
    -24.842  0.0000E+00  0.2400E+02
    -24.546  0.0000E+00  0.2400E+02
    -24.251  0.0000E+00  0.2400E+02
    -23.956  0.0000E+00  0.2400E+02
    -23.661  0.0000E+00  0.2400E+02
    -23.366  0.0000E+00  0.2400E+02
    -23.071  0.0000E+00  0.2400E+02
    -22.776  0.0000E+00  0.2400E+02
    -22.480  0.0000E+00  0.2400E+02
    -22.185  0.0000E+00  0.2400E+02
    -21.890  0.0000E+00  0.2400E+02
    -21.595  0.0000E+00  0.2400E+02
    -21.300  0.0000E+00  0.2400E+02
    -21.005  0.0000E+00  0.2400E+02
    -20.710  0.0000E+00  0.2400E+02
    -20.414  0.0000E+00  0.2400E+02
    -20.119  0.0000E+00  0.2400E+02
    -19.824  0.0000E+00  0.2400E+02
    -19.529  0.0000E+00  0.2400E+02
    -19.234  0.0000E+00  0.2400E+02
    -18.939  0.0000E+00  0.2400E+02
    -18.643  0.0000E+00  0.2400E+02
    -18.348  0.0000E+00  0.2400E+02
    -18.053  0.0000E+00  0.2400E+02
    -17.758  0.0000E+00  0.2400E+02
    -17.463  0.0000E+00  0.2400E+02
    -17.168  0.0000E+00  0.2400E+02
    -16.873  0.0000E+00  0.2400E+02
    -16.577  0.0000E+00  0.2400E+02
    -16.282  0.0000E+00  0.2400E+02
    -15.987  0.0000E+00  0.2400E+02
    -15.692  0.0000E+00  0.2400E+02
    -15.397  0.0000E+00  0.2400E+02
    -15.102  0.0000E+00  0.2400E+02
    -14.806  0.0000E+00  0.2400E+02
    -14.511  0.0000E+00  0.2400E+02
    -14.216  0.0000E+00  0.2400E+02
    -13.921  0.0000E+00  0.2400E+02
    -13.626  0.0000E+00  0.2400E+02
    -13.331  0.0000E+00  0.2400E+02
    -13.036  0.0000E+00  0.2400E+02
    -12.740  0.0000E+00  0.2400E+02
    -12.445  0.4619E+00  0.2403E+02
    -12.150  0.1545E+01  0.2441E+02
    -11.855  0.1652E+01  0.2488E+02
    -11.560  0.1777E+01  0.2539E+02
    -11.265  0.2682E+01  0.2603E+02
    -10.969  0.4665E+01  0.2719E+02
    -10.674  0.5559E+01  0.2869E+02
    -10.379  0.8554E+01  0.3064E+02
    -10.084  0.8563E+01  0.3327E+02
     -9.789  0.5505E+01  0.3570E+02
     -9.494  0.0000E+00  0.3600E+02
     -9.199  0.0000E+00  0.3600E+02
     -8.903  0.0000E+00  0.3600E+02
     -8.608  0.0000E+00  0.3600E+02
     -8.313  0.0000E+00  0.3600E+02
     -8.018  0.0000E+00  0.3600E+02
     -7.723  0.0000E+00  0.3600E+02
     -7.428  0.0000E+00  0.3600E+02
     -7.133  0.0000E+00  0.3600E+02
     -6.837  0.0000E+00  0.3600E+02
     -6.542  0.0000E+00  0.3600E+02
     -6.247  0.0000E+00  0.3600E+02
     -5.952  0.0000E+00  0.3600E+02
     -5.657  0.0000E+00  0.3600E+02
     -5.362  0.1331E+01  0.3607E+02
     -5.066  0.3007E+01  0.3677E+02
     -4.771  0.4212E+01  0.3787E+02
     -4.476  0.5061E+01  0.3954E+02
     -4.181  0.8113E+01  0.4097E+02
     -3.886  0.5192E+01  0.4369E+02
     -3.591  0.4912E+01  0.4530E+02
     -3.296  0.7101E+01  0.4649E+02
     -3.000  0.9297E+01  0.4899E+02
     -2.705  0.3912E+01  0.5153E+02
     -2.410  0.5968E+01  0.5317E+02
     -2.115  0.7354E+01  0.5554E+02
     -1.820  0.8400E+01  0.5795E+02
     -1.525  0.5162E+01  0.5979E+02
     -1.229  0.1721E+02  0.6196E+02
     -0.934  0.8999E+01  0.6594E+02
     -0.639  0.1078E+02  0.6918E+02
     -0.344  0.5511E+01  0.7142E+02
     -0.049  0.7796E+01  0.7352E+02
      0.246  0.7126E+01  0.7664E+02
      0.541  0.1642E+01  0.7786E+02
      0.837  0.0000E+00  0.7800E+02
      1.132  0.0000E+00  0.7800E+02
      1.427  0.0000E+00  0.7800E+02
      1.722  0.1856E+01  0.7808E+02
      2.017  0.7421E+01  0.7931E+02
      2.312  0.9333E+01  0.8168E+02
      2.608  0.1521E+02  0.8587E+02
      2.903  0.7594E+01  0.8922E+02
      3.198  0.8512E+01  0.9188E+02
      3.493  0.6118E+01  0.9418E+02
      3.788  0.1057E+02  0.9562E+02
      4.083  0.9064E+01  0.9735E+02
      4.378  0.1341E+02  0.1001E+03
      4.674  0.4191E+01  0.1022E+03
      4.969  0.1264E+02  0.1038E+03
      5.264  0.4202E+01  0.1048E+03
      5.559  0.6623E+01  0.1061E+03
      5.854  0.3783E+01  0.1074E+03
      6.149  0.3664E+01  0.1085E+03
      6.444  0.4327E+01  0.1101E+03
      6.740  0.2820E+01  0.1113E+03
      7.035  0.7659E+00  0.1119E+03
      7.330  0.0000E+00  0.1120E+03
      7.625  0.0000E+00  0.1120E+03
      7.920  0.0000E+00  0.1120E+03
      8.215  0.0000E+00  0.1120E+03
      8.511  0.0000E+00  0.1120E+03
      8.806  0.0000E+00  0.1120E+03
      9.101  0.0000E+00  0.1120E+03
      9.396  0.0000E+00  0.1120E+03
      9.691  0.0000E+00  0.1120E+03
      9.986  0.0000E+00  0.1120E+03
     10.281  0.0000E+00  0.1120E+03
     10.577  0.0000E+00  0.1120E+03
     10.872  0.0000E+00  0.1120E+03
     11.167  0.0000E+00  0.1120E+03
