       N       E                     dE             d eps       ncg     rms          rms(c)
DAV:   1     0.481285403143E+03    0.48129E+03   -0.32163E+04  5852   0.765E+02
DAV:   2    -0.409862479133E+02   -0.52227E+03   -0.51713E+03  6608   0.230E+02
DAV:   3    -0.695217837019E+02   -0.28536E+02   -0.28426E+02  6524   0.583E+01
DAV:   4    -0.699098614843E+02   -0.38808E+00   -0.38760E+00  5292   0.766E+00
DAV:   5    -0.699228380540E+02   -0.12977E-01   -0.12972E-01  6356   0.127E+00    0.135E+02
DAV:   6    -0.657498540869E+02    0.41730E+01   -0.45185E+01  5040   0.152E+01    0.117E+02
DAV:   7    -0.908280302260E+02   -0.25078E+02   -0.22076E+02  5488   0.329E+01    0.164E+02
DAV:   8    -0.639022777473E+02    0.26926E+02   -0.14329E+02  5544   0.248E+01    0.115E+01
DAV:   9    -0.645026906885E+02   -0.60041E+00   -0.67371E+00  4816   0.677E+00    0.141E+01
DAV:  10    -0.645042881659E+02   -0.15975E-02   -0.13490E-01  7112   0.126E+00    0.964E+00
DAV:  11    -0.644995710725E+02    0.47171E-02   -0.23439E-03  5460   0.166E-01    0.839E+00
DAV:  12    -0.644764234149E+02    0.23148E-01   -0.91367E-02  5880   0.844E-01    0.240E+00
DAV:  13    -0.644764003176E+02    0.23097E-04   -0.62956E-03  5684   0.229E-01    0.486E-01
DAV:  14    -0.644763288903E+02    0.71427E-04   -0.65467E-04  6496   0.678E-02    0.148E-01
DAV:  15    -0.644760598729E+02    0.26902E-03   -0.11918E-03  6132   0.900E-02    0.557E-01
DAV:  16    -0.644760726310E+02   -0.12758E-04   -0.77359E-05  5880   0.292E-02    0.337E-01
DAV:  17    -0.644761272471E+02   -0.54616E-04   -0.76615E-05  5572   0.256E-02    0.257E-02
DAV:  18    -0.644761774637E+02   -0.50217E-04   -0.15053E-05  5488   0.106E-02    0.777E-02
DAV:  19    -0.644762468730E+02   -0.69409E-04   -0.19119E-05  5236   0.102E-02    0.360E-02
DAV:  20    -0.644763066442E+02   -0.59771E-04   -0.13749E-05  5348   0.725E-03    0.349E-02
DAV:  21    -0.644763421060E+02   -0.35462E-04   -0.26234E-06  5376   0.406E-03    0.264E-02
DAV:  22    -0.644763829196E+02   -0.40814E-04   -0.24593E-06  5152   0.352E-03    0.657E-03
DAV:  23    -0.644763941899E+02   -0.11270E-04   -0.20996E-07  5880   0.119E-03    0.387E-03
DAV:  24    -0.644764093902E+02   -0.15200E-04   -0.21102E-07  5012   0.917E-04    0.349E-03
DAV:  25    -0.644764164750E+02   -0.70848E-05   -0.97854E-08  5432   0.697E-04    0.115E-03
DAV:  26    -0.644764183067E+02   -0.18317E-05   -0.13948E-08  4872   0.331E-04    0.485E-04
DAV:  27    -0.644764195269E+02   -0.12202E-05   -0.77129E-09  4312   0.265E-04    0.376E-04
DAV:  28    -0.644764201818E+02   -0.65491E-06   -0.48037E-09  4312   0.214E-04    0.168E-04
DAV:  29    -0.644764203479E+02   -0.16611E-06   -0.12720E-09  4508   0.108E-04    0.482E-05
DAV:  30    -0.644764204006E+02   -0.52645E-07   -0.42337E-10  4144   0.673E-05    0.477E-05
DAV:  31    -0.644764204210E+02   -0.20440E-07   -0.29423E-11  4172   0.400E-05    0.626E-05
DAV:  32    -0.644764204275E+02   -0.64992E-08    0.96521E-13  4004   0.226E-05
   1 F= -.67172308E+02 E0= -.67172308E+02  d E =0.000000E+00
 Linear response reoptimize wavefunctions
DAV:   1    -0.644764204358E+02    0.26959E+01    0.18214E-11  3780   0.328E-05
DAV:   2    -0.644764204359E+02   -0.72760E-10    0.46719E-11  3892   0.937E-06
 Linear response G [H, r] |phi>, progress :
  Direction:   1
       N       E                     dE             d eps       ncg     rms
RMM:   1    -0.380122256022E+03   -0.38012E+03   -0.44491E+03  5631   0.524E+02
RMM:   2    -0.400743799716E+03   -0.20622E+02   -0.58016E+02  8702   0.506E+01
RMM:   3    -0.405932836101E+03   -0.51890E+01   -0.60200E+01  9313   0.136E+01
RMM:   4    -0.406493745054E+03   -0.56091E+00   -0.34137E+00 10017   0.310E+00
RMM:   5    -0.406547296907E+03   -0.53552E-01   -0.47584E-01 10244   0.963E-01
RMM:   6    -0.406551775784E+03   -0.44789E-02   -0.32304E-02 10676   0.274E-01
RMM:   7    -0.406552657115E+03   -0.88133E-03   -0.87025E-03 10926   0.980E-02
RMM:   8    -0.406552430885E+03    0.22623E-03    0.34249E-04 11180   0.311E-02
RMM:   9    -0.406552580955E+03   -0.15007E-03   -0.65328E-04 11183   0.131E-02
RMM:  10    -0.406552557459E+03    0.23496E-04   -0.29703E-04 11344   0.605E-03
RMM:  11    -0.406552545341E+03    0.12118E-04   -0.16533E-04 11372   0.423E-03
RMM:  12    -0.406552542188E+03    0.31529E-05   -0.13090E-04 11324   0.351E-03
RMM:  13    -0.406552541390E+03    0.79851E-06   -0.12261E-04 11154   0.333E-03
RMM:  14    -0.406552543186E+03   -0.17961E-05   -0.14037E-04 10843   0.326E-03
 Linear response G [H, r] |phi>, progress :
  Direction:   2
       N       E                     dE             d eps       ncg     rms
RMM:   1    -0.367075390963E+03   -0.36708E+03   -0.46144E+03  5620   0.520E+02
RMM:   2    -0.422748321878E+03   -0.55673E+02   -0.63117E+02  8629   0.507E+01
RMM:   3    -0.429950720896E+03   -0.72024E+01   -0.66093E+01  9186   0.136E+01
RMM:   4    -0.430523994516E+03   -0.57327E+00   -0.32451E+00  9925   0.305E+00
RMM:   5    -0.430564985736E+03   -0.40991E-01   -0.27358E-01 10239   0.883E-01
RMM:   6    -0.430573503429E+03   -0.85177E-02   -0.20209E-02 10653   0.255E-01
RMM:   7    -0.430574027417E+03   -0.52399E-03   -0.41333E-04 10852   0.839E-02
RMM:   8    -0.430574340678E+03   -0.31326E-03    0.65731E-05 11114   0.271E-02
RMM:   9    -0.430574383506E+03   -0.42829E-04   -0.99764E-05 11168   0.108E-02
RMM:  10    -0.430574388639E+03   -0.51321E-05   -0.10096E-04 11292   0.500E-03
RMM:  11    -0.430574401136E+03   -0.12497E-04   -0.22230E-04 11328   0.342E-03
RMM:  12    -0.430574395562E+03    0.55735E-05   -0.16564E-04 11247   0.288E-03
RMM:  13    -0.430574401488E+03   -0.59256E-05   -0.22494E-04 11101   0.274E-03
RMM:  14    -0.430574397466E+03    0.40215E-05   -0.18452E-04 10841   0.269E-03
 Linear response G [H, r] |phi>, progress :
  Direction:   3
       N       E                     dE             d eps       ncg     rms
RMM:   1    -0.392503131328E+03   -0.39250E+03   -0.48435E+03  5671   0.506E+02
RMM:   2    -0.417457604050E+03   -0.24954E+02   -0.58920E+02  8495   0.486E+01
RMM:   3    -0.424622553892E+03   -0.71649E+01   -0.56910E+01  9188   0.126E+01
RMM:   4    -0.425109725565E+03   -0.48717E+00   -0.37552E+00 10087   0.301E+00
RMM:   5    -0.425157859989E+03   -0.48134E-01   -0.57941E-01 10177   0.955E-01
RMM:   6    -0.425164267488E+03   -0.64075E-02   -0.51592E-02 10554   0.276E-01
RMM:   7    -0.425165312740E+03   -0.10453E-02   -0.10656E-02 10839   0.994E-02
RMM:   8    -0.425165484825E+03   -0.17209E-03   -0.84201E-04 11118   0.307E-02
RMM:   9    -0.425165504308E+03   -0.19482E-04   -0.18507E-04 11190   0.127E-02
RMM:  10    -0.425165510907E+03   -0.65995E-05   -0.68504E-06 11370   0.530E-03
RMM:  11    -0.425165512109E+03   -0.12022E-05   -0.49045E-06 11381   0.353E-03
RMM:  12    -0.425165512884E+03   -0.77507E-06   -0.72553E-06 11248   0.284E-03
RMM:  13    -0.425165512719E+03    0.16577E-06   -0.51332E-06 11177   0.266E-03
RMM:  14    -0.425165513007E+03   -0.28823E-06   -0.76450E-06 10950   0.258E-03
 Linear response to external field (no local field effect), progress :
  Direction:   1
       N       E                     dE             d eps       ncg     rms          rms(c)
RMM:   1    -0.752467076012E+01   -0.75247E+01   -0.43508E+01 10765   0.776E+00
RMM:   2    -0.117060541938E+02   -0.41814E+01   -0.70621E-01  9191   0.218E+00
RMM:   3    -0.117370316012E+02   -0.30977E-01   -0.59192E-02  9663   0.483E-01
RMM:   4    -0.117385827290E+02   -0.15511E-02   -0.45466E-03 10005   0.122E-01
RMM:   5    -0.117386820137E+02   -0.99285E-04   -0.42733E-04  9820   0.357E-02
RMM:   6    -0.117386892152E+02   -0.72016E-05   -0.35086E-05  9442   0.103E-02
RMM:   7    -0.117386897906E+02   -0.57540E-06   -0.37074E-06  9158   0.328E-03
RMM:   8    -0.117386898383E+02   -0.47602E-07   -0.42666E-07  9030   0.102E-03
RMM:   9    -0.117386898395E+02   -0.12685E-08   -0.59922E-08  8910   0.357E-04
 Linear response to external field (no local field effect), progress :
  Direction:   2
       N       E                     dE             d eps       ncg     rms          rms(c)
RMM:   1    -0.850548972635E+01   -0.85055E+01   -0.50407E+01 10638   0.801E+00
RMM:   2    -0.116989235525E+02   -0.31934E+01   -0.72776E-01  9111   0.220E+00
RMM:   3    -0.117319332683E+02   -0.33010E-01   -0.60470E-02  9512   0.500E-01
RMM:   4    -0.117335837680E+02   -0.16505E-02   -0.39903E-03 10016   0.122E-01
RMM:   5    -0.117336754382E+02   -0.91670E-04   -0.44379E-04  9762   0.371E-02
RMM:   6    -0.117336833904E+02   -0.79522E-05   -0.32572E-05  9547   0.106E-02
RMM:   7    -0.117336840434E+02   -0.65299E-06   -0.36994E-06  9161   0.345E-03
RMM:   8    -0.117336841073E+02   -0.63974E-07   -0.26498E-07  9069   0.104E-03
RMM:   9    -0.117336841198E+02   -0.12487E-07   -0.34094E-08  8857   0.369E-04
RMM:  10    -0.117336841206E+02   -0.77154E-09    0.44487E-09  8425   0.128E-04
 Linear response to external field (no local field effect), progress :
  Direction:   3
       N       E                     dE             d eps       ncg     rms          rms(c)
RMM:   1    -0.560391629956E+01   -0.56039E+01   -0.26595E+01 10416   0.740E+00
RMM:   2    -0.683001389055E+01   -0.12261E+01   -0.62279E-01  8969   0.194E+00
RMM:   3    -0.685137729291E+01   -0.21363E-01   -0.55017E-02  9520   0.467E-01
RMM:   4    -0.685266475291E+01   -0.12875E-02   -0.44608E-03  9887   0.122E-01
RMM:   5    -0.685275320614E+01   -0.88453E-04   -0.46146E-04  9713   0.373E-02
RMM:   6    -0.685276155534E+01   -0.83492E-05   -0.43674E-05  9291   0.104E-02
RMM:   7    -0.685276234928E+01   -0.79394E-06   -0.50512E-06  9000   0.342E-03
RMM:   8    -0.685276243911E+01   -0.89833E-07   -0.57161E-07  8829   0.104E-03
RMM:   9    -0.685276244817E+01   -0.90559E-08   -0.73761E-08  8531   0.352E-04
 Linear response to external field, progress :
  Direction:   1
       N       E                     dE             d eps       ncg     rms          rms(c)
RMM:   1    -0.799708734630E+01   -0.79971E+01   -0.46777E+01 47228   0.778E+00
RMM:   2    -0.117031191987E+02   -0.37060E+01   -0.71269E-01 40329   0.214E+00    0.545E+00
RMM:   3    -0.114705810595E+02    0.23254E+00   -0.29653E-01 38056   0.185E+00    0.312E+00
RMM:   4    -0.117130886944E+02   -0.24251E+00   -0.24101E-01 36550   0.183E+00    0.814E-01
RMM:   5    -0.118006510291E+02   -0.87562E-01   -0.77131E-03 38505   0.435E-01    0.899E-02
RMM:   6    -0.118078740692E+02   -0.72230E-02   -0.84618E-04 40598   0.849E-02    0.530E-02
RMM:   7    -0.118116471510E+02   -0.37731E-02    0.30336E-04 40790   0.316E-02    0.258E-02
RMM:   8    -0.118142993921E+02   -0.26522E-02   -0.33144E-04 39047   0.154E-02    0.538E-03
RMM:   9    -0.118149322676E+02   -0.63288E-03    0.26119E-05 39883   0.598E-03    0.226E-03
RMM:  10    -0.118151967968E+02   -0.26453E-03   -0.13036E-05 39566   0.266E-03    0.824E-04
RMM:  11    -0.118152790489E+02   -0.82252E-04    0.61039E-06 39722   0.100E-03    0.397E-04
RMM:  12    -0.118152966179E+02   -0.17569E-04    0.21052E-06 41762   0.312E-04    0.193E-04
RMM:  13    -0.118153009757E+02   -0.43578E-05   -0.14256E-06 36868   0.119E-04    0.473E-05
RMM:  14    -0.118152992131E+02    0.17626E-05   -0.75390E-07 32796   0.563E-05    0.246E-05
RMM:  15    -0.118152989127E+02    0.30043E-06    0.81267E-08 18700   0.326E-05    0.807E-06
 Linear response to external field, progress :
  Direction:   2
       N       E                     dE             d eps       ncg     rms          rms(c)
RMM:   1    -0.806464085544E+01   -0.80646E+01   -0.47453E+01 26142   0.779E+00
RMM:   2    -0.117015841999E+02   -0.36369E+01   -0.72319E-01 22422   0.216E+00    0.545E+00
RMM:   3    -0.114714847305E+02    0.23010E+00   -0.30322E-01 21015   0.185E+00    0.312E+00
RMM:   4    -0.117118134701E+02   -0.24033E+00   -0.22428E-01 20124   0.184E+00    0.812E-01
RMM:   5    -0.118003175578E+02   -0.88504E-01   -0.11580E-02 21390   0.437E-01    0.107E-01
RMM:   6    -0.118076622499E+02   -0.73447E-02   -0.38408E-03 22760   0.879E-02    0.697E-02
RMM:   7    -0.118098234921E+02   -0.21612E-02    0.67883E-04 23572   0.277E-02    0.333E-02
RMM:   8    -0.118140036479E+02   -0.41802E-02   -0.55813E-06 19949   0.227E-02    0.907E-03
RMM:   9    -0.118147486198E+02   -0.74497E-03   -0.19130E-04 21885   0.615E-03    0.542E-03
RMM:  10    -0.118151015556E+02   -0.35294E-03    0.20354E-05 21257   0.322E-03    0.195E-03
RMM:  11    -0.118152164759E+02   -0.11492E-03   -0.23155E-05 21157   0.119E-03    0.135E-03
RMM:  12    -0.118152758937E+02   -0.59418E-04   -0.16726E-05 20362   0.715E-04    0.161E-04
RMM:  13    -0.118152856973E+02   -0.98036E-05    0.35490E-07 21569   0.225E-04    0.812E-05
RMM:  14    -0.118152849083E+02    0.78901E-06    0.85485E-08 20578   0.812E-05    0.484E-05
RMM:  15    -0.118152835022E+02    0.14061E-05   -0.24740E-07 12278   0.361E-05    0.242E-05
RMM:  16    -0.118152833416E+02    0.16057E-06   -0.25250E-07  9291   0.331E-05    0.974E-06
 Linear response to external field, progress :
  Direction:   3
       N       E                     dE             d eps       ncg     rms          rms(c)
RMM:   1    -0.560391629957E+01   -0.56039E+01   -0.26595E+01 10416   0.740E+00
RMM:   2    -0.683001389055E+01   -0.12261E+01   -0.62279E-01  8969   0.194E+00    0.502E+00
RMM:   3    -0.133216332477E+01    0.54979E+01   -0.72063E+00  8003   0.479E+00    0.322E+00
RMM:   4    -0.159430456222E+01   -0.26214E+00   -0.49160E+00  8159   0.155E+00    0.109E+00
RMM:   5    -0.135700909641E+01    0.23730E+00   -0.32074E+00  8854   0.652E-01    0.752E-01
RMM:   6    -0.125854437037E+01    0.98465E-01   -0.31262E+00  8688   0.650E-01    0.273E-01
RMM:   7    -0.106721749606E+01    0.19133E+00   -0.12727E+00  8909   0.246E-01    0.172E-01
RMM:   8    -0.988284873883E+00    0.78933E-01   -0.52550E-01  8666   0.126E-01    0.637E-02
RMM:   9    -0.963631086961E+00    0.24654E-01   -0.28862E-01  8353   0.667E-02    0.434E-02
RMM:  10    -0.957563537521E+00    0.60675E-02   -0.23257E-01  7194   0.462E-02    0.206E-02
RMM:  11    -0.946703881469E+00    0.10860E-01   -0.11819E-01  7276   0.394E-02    0.161E-02
RMM:  12    -0.934364939325E+00    0.12339E-01    0.96472E-03  7512   0.215E-02    0.579E-03
RMM:  13    -0.938125103148E+00   -0.37602E-02   -0.23773E-02  7185   0.162E-02    0.320E-03
RMM:  14    -0.938835079456E+00   -0.70998E-03   -0.30233E-02  8027   0.674E-03    0.199E-03
RMM:  15    -0.936013554311E+00    0.28215E-02   -0.10174E-03  6903   0.916E-03    0.897E-04
RMM:  16    -0.937217665066E+00   -0.12041E-02   -0.13083E-02  7744   0.332E-03    0.684E-04
RMM:  17    -0.935992625890E+00    0.12250E-02   -0.10113E-03  7250   0.306E-03    0.373E-04
RMM:  18    -0.936031275536E+00   -0.38650E-04   -0.15367E-03  7515   0.124E-03    0.183E-04
RMM:  19    -0.935952827644E+00    0.78448E-04   -0.80684E-04  7435   0.577E-04    0.168E-04
RMM:  20    -0.935866066413E+00    0.86761E-04    0.36906E-05  7161   0.313E-04    0.117E-04
RMM:  21    -0.935846374364E+00    0.19692E-04    0.21428E-04  6708   0.315E-04    0.536E-05
RMM:  22    -0.935837143920E+00    0.92304E-05    0.31606E-04  6181   0.166E-04    0.245E-05
RMM:  23    -0.935896099392E+00   -0.58955E-04   -0.26616E-04  5909   0.102E-04    0.158E-05
RMM:  24    -0.935859345719E+00    0.36754E-04    0.10322E-04  4474   0.439E-05    0.879E-06
