 vasp.5.4.1 24Jun15 (build Apr 13 2016 13:07:19) complex                        
  
 executed on           IFC91_ompi date 2019.09.14  02:53:50
 running on   28 total cores
 distrk:  each k-point on   28 cores,    1 groups
 distr:  one band on NCORES_PER_BAND=   1 cores,   28 groups


--------------------------------------------------------------------------------------------------------


 INCAR:
 POTCAR:    PAW_PBE W_sv_GW 23Mar2010             
 POTCAR:    PAW_PBE Te_GW 22Mar2012               

 ----------------------------------------------------------------------------- 
|                                                                             |
|           W    W    AA    RRRRR   N    N  II  N    N   GGGG   !!!           |
|           W    W   A  A   R    R  NN   N  II  NN   N  G    G  !!!           |
|           W    W  A    A  R    R  N N  N  II  N N  N  G       !!!           |
|           W WW W  AAAAAA  RRRRR   N  N N  II  N  N N  G  GGG   !            |
|           WW  WW  A    A  R   R   N   NN  II  N   NN  G    G                |
|           W    W  A    A  R    R  N    N  II  N    N   GGGG   !!!           |
|                                                                             |
|      For optimal performance we recommend to set                            |
|        NCORE= 4 - approx SQRT( number of cores)                             |
|      NCORE specifies how many cores store one orbital (NPAR=cpu/NCORE).     |
|      This setting can  greatly improve the performance of VASP for DFT.     |
|      The default, NPAR=number of cores might be grossly inefficient         |
|      on modern multi-core architectures or massively parallel machines.     |
|      Do your own testing !!!!                                               |
|      Unfortunately you need to use the default for GW and RPA calculations. |
|      (for HF NCORE is supported but not extensively tested yet)             |
|                                                                             |
 ----------------------------------------------------------------------------- 

 POTCAR:    PAW_PBE W_sv_GW 23Mar2010             
   VRHFIN =W: 5p6s5d                                                            
   LEXCH  = PE                                                                  
   EATOM  =  1863.8917 eV,  136.9922 Ry                                         
                                                                                
   TITEL  = PAW_PBE W_sv_GW 23Mar2010                                           
   LULTRA =        F    use ultrasoft PP ?                                      
   IUNSCR =        1    unscreen: 0-lin 1-nonlin 2-no                           
   RPACOR =    1.500    partial core radius                                     
   POMASS =  183.850; ZVAL   =   14.000    mass and valenz                      
   RCORE  =    2.300    outmost cutoff radius                                   
   RWIGS  =    2.600; RWIGS  =    1.376    wigner-seitz radius (au A)           
   ENMAX  =  317.132; ENMIN  =  237.849 eV                                      
   RCLOC  =    1.609    cutoff for local pot                                    
   LCOR   =        T    correct aug charges                                     
   LPAW   =        T    paw PP                                                  
   EAUG   =  807.757                                                            
   DEXC   =    0.000                                                            
   RMAX   =    2.349    core radius for proj-oper                               
   RAUG   =    1.300    factor for augmentation sphere                          
   RDEP   =    2.382    radius for radial grids                                 
   RDEPT  =    1.832    core radius for aug-charge                              
                                                                                
   Atomic configuration                                                         
   14 entries                                                                   
     n  l   j            E        occ.                                          
     1  0  0.50    -69464.1497   2.0000                                         
     2  0  0.50    -11984.7400   2.0000                                         
     2  1  1.50    -10478.3405   6.0000                                         
     3  0  0.50     -2757.5605   2.0000                                         
     3  1  1.50     -2311.6706   6.0000                                         
     3  2  2.50     -1799.5973  10.0000                                         
     4  0  0.50      -566.1609   2.0000                                         
     4  1  1.50      -419.9482   6.0000                                         
     4  2  2.50      -234.8191  10.0000                                         
     4  3  3.50       -29.7363  14.0000                                         
     5  0  0.50       -75.5905   2.0000                                         
     5  1  1.50       -39.9756   6.0000                                         
     5  2  2.50        -2.4479   6.0000                                         
     5  3  2.50        -1.3606   0.0000                                         
   Description                                                                  
     l       E           TYP  RCUT    TYP  RCUT                                 
     0    -75.5905419     23  1.500                                             
     0    -76.9511245     23  1.500                                             
     0    108.8466080     23  1.500                                             
     1    -39.9756040     23  1.800                                             
     1     68.0291300     23  1.800                                             
     2     -2.4478587     23  2.150                                             
     2     -0.0030619     23  2.150                                             
     3      4.0817478     23  2.300                                             
  local pseudopotential read in
  partial core-charges read in
  partial kinetic energy density read in
  kinetic energy density of atom read in
  atomic valenz-charges read in
  non local Contribution for L=           0  read in
    real space projection operators read in
  non local Contribution for L=           0  read in
    real space projection operators read in
  non local Contribution for L=           0  read in
    real space projection operators read in
  non local Contribution for L=           1  read in
    real space projection operators read in
  non local Contribution for L=           1  read in
    real space projection operators read in
  non local Contribution for L=           2  read in
    real space projection operators read in
  non local Contribution for L=           2  read in
    real space projection operators read in
  non local Contribution for L=           3  read in
    real space projection operators read in
    PAW grid and wavefunctions read in
 
   number of l-projection  operators is LMAX  =           8
   number of lm-projection operators is LMMAX =          26
 
 POTCAR:    PAW_PBE Te_GW 22Mar2012               
   VRHFIN =Te: s2p4                                                             
   LEXCH  = PE                                                                  
   EATOM  =   223.2721 eV,   16.4100 Ry                                         
                                                                                
   TITEL  = PAW_PBE Te_GW 22Mar2012                                             
   LULTRA =        F    use ultrasoft PP ?                                      
   IUNSCR =        1    unscreen: 0-lin 1-nonlin 2-no                           
   RPACOR =    2.200    partial core radius                                     
   POMASS =  127.600; ZVAL   =    6.000    mass and valenz                      
   RCORE  =    2.600    outmost cutoff radius                                   
   RWIGS  =    2.900; RWIGS  =    1.535    wigner-seitz radius (au A)           
   ENMAX  =  174.982; ENMIN  =  131.236 eV                                      
   ICORE  =        3    local potential                                         
   LCOR   =        T    correct aug charges                                     
   LPAW   =        T    paw PP                                                  
   EAUG   =  368.792                                                            
   DEXC   =    0.000                                                            
   RMAX   =    2.665    core radius for proj-oper                               
   RAUG   =    1.300    factor for augmentation sphere                          
   RDEP   =    2.724    radius for radial grids                                 
   RDEPT  =    2.174    core radius for aug-charge                              
                                                                                
   Atomic configuration                                                         
   13 entries                                                                   
     n  l   j            E        occ.                                          
     1  0  0.50    -31621.2075   2.0000                                         
     2  0  0.50     -4848.7941   2.0000                                         
     2  1  1.50     -4352.1960   6.0000                                         
     3  0  0.50      -964.9612   2.0000                                         
     3  1  1.50      -803.6179   6.0000                                         
     3  2  2.50      -559.8710  10.0000                                         
     4  0  0.50      -164.3522   2.0000                                         
     4  1  1.50      -114.3756   6.0000                                         
     4  2  2.50       -41.6483  10.0000                                         
     5  0  0.50       -15.1072   2.0000                                         
     5  1  0.50        -5.9526   4.0000                                         
     5  2  1.50        -6.8029   0.0000                                         
     4  3  2.50        -6.8029   0.0000                                         
   Description                                                                  
     l       E           TYP  RCUT    TYP  RCUT                                 
     0    -15.1072389     23  2.300                                             
     0     68.0291300     23  2.300                                             
     1     -5.9526306     23  2.300                                             
     1     95.2407820     23  2.300                                             
     2      1.3605826     23  2.600                                             
     2     68.0291300     23  2.600                                             
     3     -1.3605826     23  2.300                                             
  local pseudopotential read in
  partial core-charges read in
  partial kinetic energy density read in
  kinetic energy density of atom read in
  atomic valenz-charges read in
  non local Contribution for L=           0  read in
    real space projection operators read in
  non local Contribution for L=           0  read in
    real space projection operators read in
  non local Contribution for L=           1  read in
    real space projection operators read in
  non local Contribution for L=           1  read in
    real space projection operators read in
  non local Contribution for L=           2  read in
    real space projection operators read in
  non local Contribution for L=           2  read in
    real space projection operators read in
    PAW grid and wavefunctions read in
 
   number of l-projection  operators is LMAX  =           6
   number of lm-projection operators is LMMAX =          18
 
  PAW_PBE W_sv_GW 23Mar2010             :
 energy of atom  1       EATOM=-1863.8917
 kinetic energy error for atom=    0.2291 (will be added to EATOM!!)
  PAW_PBE Te_GW 22Mar2012               :
 energy of atom  2       EATOM= -223.2721
 kinetic energy error for atom=    0.0024 (will be added to EATOM!!)
 
 
 POSCAR:  W Te                                   
  positions in cartesian coordinates
  No initial velocities read in
 exchange correlation table for  LEXCH =        8
   RHO(1)=    0.500       N(1)  =     2000
   RHO(2)=  100.500       N(2)  =     4000
 


--------------------------------------------------------------------------------------------------------


 ion  position               nearest neighbor table
   1  0.167  0.333  0.359-   4 2.74   4 2.74   4 2.74   5 2.74   5 2.74   5 2.74
   2  0.833  0.667  0.500-   6 2.74   7 2.74   6 2.74   7 2.74   6 2.74   7 2.74
   3  0.167  0.333  0.641-   9 2.74   9 2.74   9 2.74   8 2.74   8 2.74   8 2.74
   4  0.833  0.667  0.395-   1 2.74   1 2.74   1 2.74   5 3.62
   5  0.833  0.667  0.323-   1 2.74   1 2.74   1 2.74   4 3.62
   6  0.167  0.333  0.536-   2 2.74   2 2.74   2 2.74   7 3.62
   7  0.167  0.333  0.464-   2 2.74   2 2.74   2 2.74   6 3.62
   8  0.833  0.667  0.677-   3 2.74   3 2.74   3 2.74   9 3.62
   9  0.833  0.667  0.605-   3 2.74   3 2.74   3 2.74   8 3.62
 
  LATTYP: Found a hexagonal cell.
 ALAT       =     3.5500762221
 C/A-ratio  =    14.0842046402
  
  Lattice vectors:
  
 A1 = (   3.5500762221,   0.0000000000,   0.0000000000)
 A2 = (  -1.7750381110,   3.0744561937,   0.0000000000)
 A3 = (   0.0000000000,   0.0000000000,  50.0000000000)


Analysis of symmetry for initial positions (statically):
=====================================================================
 Subroutine PRICEL returns:
 Original cell was already a primitive cell.
 

 Routine SETGRP: Setting up the symmetry group for a 
 hexagonal supercell.


 Subroutine GETGRP returns: Found 12 space group operations
 (whereof  4 operations were pure point group operations)
 out of a pool of 24 trial point group operations.


The static configuration has the point symmetry C_2v.
 The point group associated with its full space group is D_3h.


Analysis of symmetry for dynamics (positions and initial velocities):
=====================================================================
 Subroutine PRICEL returns:
 Original cell was already a primitive cell.
 

 Routine SETGRP: Setting up the symmetry group for a 
 hexagonal supercell.


 Subroutine GETGRP returns: Found 12 space group operations
 (whereof  4 operations were pure point group operations)
 out of a pool of 24 trial point group operations.


The dynamic configuration has the point symmetry C_2v.
 The point group associated with its full space group is D_3h.


 Subroutine INISYM returns: Found 12 space group operations
 (whereof  4 operations are pure point group operations),
 and found     1 'primitive' translations

 
 
 KPOINTS: KPOINTS created by Atomic Simulation Env

Automatic generation of k-mesh.
Space group operators:
 irot       det(A)        alpha          n_x          n_y          n_z        tau_x        tau_y        tau_z
    1     1.000000     0.000001     1.000000     0.000000     0.000000     0.000000     0.000000     0.000000
    2    -1.000000   180.000000     0.000000     0.000000     1.000000     0.000000     0.000000     0.000000
    3    -1.000000   179.999999     1.000000     0.000000     0.000000     0.000000     0.000000     0.000000
    4     1.000000   180.000000     0.000000     1.000000     0.000000     0.000000     0.000000     0.000000
    5    -1.000000    60.000000     0.000000     0.000000    -1.000000     0.000000     0.500000     0.000000
    6     1.000000   120.000000     0.000000     0.000000    -1.000000     0.500000     0.500000     0.000000
    7     1.000000   120.000000     0.000000     0.000000     1.000000     0.000000     0.500000     0.000000
    8    -1.000000    60.000000     0.000000     0.000000     1.000000     0.500000     0.500000     0.000000
    9     1.000000   180.000000     0.866025    -0.500000     0.000000     0.500000     0.500000     0.000000
   10    -1.000000   180.000000     0.500000    -0.866025     0.000000     0.000000     0.500000     0.000000
   11    -1.000000   180.000000    -0.500000    -0.866025     0.000000     0.500000     0.500000     0.000000
   12     1.000000   180.000000     0.866025     0.500000     0.000000     0.000000     0.500000     0.000000
 
 Subroutine IBZKPT returns following result:
 ===========================================
 
 Found     37 irreducible k-points:
 
 Following reciprocal coordinates:
            Coordinates               Weight
  0.000000  0.000000  0.000000      1.000000
  0.055556  0.000000  0.000000      6.000000
  0.111111  0.000000  0.000000      6.000000
  0.166667  0.000000  0.000000      6.000000
  0.222222  0.000000  0.000000      6.000000
  0.277778  0.000000  0.000000      6.000000
  0.333333  0.000000  0.000000      6.000000
  0.388889  0.000000  0.000000      6.000000
  0.444444  0.000000  0.000000      6.000000
  0.500000  0.000000  0.000000      3.000000
  0.055556  0.055556  0.000000      6.000000
  0.111111  0.055556  0.000000     12.000000
  0.166667  0.055556  0.000000     12.000000
  0.222222  0.055556  0.000000     12.000000
  0.277778  0.055556  0.000000     12.000000
  0.333333  0.055556  0.000000     12.000000
  0.388889  0.055556  0.000000     12.000000
  0.444444  0.055556  0.000000     12.000000
  0.111111  0.111111  0.000000      6.000000
  0.166667  0.111111  0.000000     12.000000
  0.222222  0.111111  0.000000     12.000000
  0.277778  0.111111  0.000000     12.000000
  0.333333  0.111111  0.000000     12.000000
  0.388889  0.111111  0.000000     12.000000
  0.444444  0.111111  0.000000      6.000000
  0.166667  0.166667  0.000000      6.000000
  0.222222  0.166667  0.000000     12.000000
  0.277778  0.166667  0.000000     12.000000
  0.333333  0.166667  0.000000     12.000000
  0.388889  0.166667  0.000000     12.000000
  0.222222  0.222222  0.000000      6.000000
  0.277778  0.222222  0.000000     12.000000
  0.333333  0.222222  0.000000     12.000000
  0.388889  0.222222  0.000000      6.000000
  0.277778  0.277778  0.000000      6.000000
  0.333333  0.277778  0.000000     12.000000
  0.333333  0.333333  0.000000      2.000000
 
 Following cartesian coordinates:
            Coordinates               Weight
  0.000000  0.000000  0.000000      1.000000
  0.015649  0.009035  0.000000      6.000000
  0.031298  0.018070  0.000000      6.000000
  0.046947  0.027105  0.000000      6.000000
  0.062596  0.036140  0.000000      6.000000
  0.078246  0.045175  0.000000      6.000000
  0.093895  0.054210  0.000000      6.000000
  0.109544  0.063245  0.000000      6.000000
  0.125193  0.072280  0.000000      6.000000
  0.140842  0.081315  0.000000      3.000000
  0.015649  0.027105  0.000000      6.000000
  0.031298  0.036140  0.000000     12.000000
  0.046947  0.045175  0.000000     12.000000
  0.062596  0.054210  0.000000     12.000000
  0.078246  0.063245  0.000000     12.000000
  0.093895  0.072280  0.000000     12.000000
  0.109544  0.081315  0.000000     12.000000
  0.125193  0.090350  0.000000     12.000000
  0.031298  0.054210  0.000000      6.000000
  0.046947  0.063245  0.000000     12.000000
  0.062596  0.072280  0.000000     12.000000
  0.078246  0.081315  0.000000     12.000000
  0.093895  0.090350  0.000000     12.000000
  0.109544  0.099385  0.000000     12.000000
  0.125193  0.108420  0.000000      6.000000
  0.046947  0.081315  0.000000      6.000000
  0.062596  0.090350  0.000000     12.000000
  0.078246  0.099385  0.000000     12.000000
  0.093895  0.108420  0.000000     12.000000
  0.109544  0.117455  0.000000     12.000000
  0.062596  0.108420  0.000000      6.000000
  0.078246  0.117455  0.000000     12.000000
  0.093895  0.126490  0.000000     12.000000
  0.109544  0.135525  0.000000      6.000000
  0.078246  0.135525  0.000000      6.000000
  0.093895  0.144560  0.000000     12.000000
  0.093895  0.162630  0.000000      2.000000
 
 TETIRR: Found    169 inequivalent tetrahedra from     1944
 
 Subroutine IBZKPT_HF returns following result:
 ==============================================
 
 Found    324 k-points in 1st BZ
 the following    324 k-points will be used (e.g. in the exchange kernel)
 Following reciprocal coordinates:   # in IRBZ
  0.000000  0.000000  0.000000    0.00308642   1 t-inv F
  0.055556  0.000000  0.000000    0.00308642   2 t-inv F
  0.111111  0.000000  0.000000    0.00308642   3 t-inv F
  0.166667  0.000000  0.000000    0.00308642   4 t-inv F
  0.222222  0.000000  0.000000    0.00308642   5 t-inv F
  0.277778  0.000000  0.000000    0.00308642   6 t-inv F
  0.333333  0.000000  0.000000    0.00308642   7 t-inv F
  0.388889  0.000000  0.000000    0.00308642   8 t-inv F
  0.444444  0.000000  0.000000    0.00308642   9 t-inv F
  0.500000  0.000000  0.000000    0.00308642  10 t-inv F
  0.055556  0.055556  0.000000    0.00308642  11 t-inv F
  0.111111  0.055556  0.000000    0.00308642  12 t-inv F
  0.166667  0.055556  0.000000    0.00308642  13 t-inv F
  0.222222  0.055556  0.000000    0.00308642  14 t-inv F
  0.277778  0.055556  0.000000    0.00308642  15 t-inv F
  0.333333  0.055556  0.000000    0.00308642  16 t-inv F
  0.388889  0.055556  0.000000    0.00308642  17 t-inv F
  0.444444  0.055556  0.000000    0.00308642  18 t-inv F
  0.111111  0.111111  0.000000    0.00308642  19 t-inv F
  0.166667  0.111111  0.000000    0.00308642  20 t-inv F
  0.222222  0.111111  0.000000    0.00308642  21 t-inv F
  0.277778  0.111111  0.000000    0.00308642  22 t-inv F
  0.333333  0.111111  0.000000    0.00308642  23 t-inv F
  0.388889  0.111111  0.000000    0.00308642  24 t-inv F
  0.444444  0.111111  0.000000    0.00308642  25 t-inv F
  0.166667  0.166667  0.000000    0.00308642  26 t-inv F
  0.222222  0.166667  0.000000    0.00308642  27 t-inv F
  0.277778  0.166667  0.000000    0.00308642  28 t-inv F
  0.333333  0.166667  0.000000    0.00308642  29 t-inv F
  0.388889  0.166667  0.000000    0.00308642  30 t-inv F
  0.222222  0.222222  0.000000    0.00308642  31 t-inv F
  0.277778  0.222222  0.000000    0.00308642  32 t-inv F
  0.333333  0.222222  0.000000    0.00308642  33 t-inv F
  0.388889  0.222222  0.000000    0.00308642  34 t-inv F
  0.277778  0.277778  0.000000    0.00308642  35 t-inv F
  0.333333  0.277778  0.000000    0.00308642  36 t-inv F
  0.333333  0.333333  0.000000    0.00308642  37 t-inv F
 -0.055556  0.055556  0.000000    0.00308642   2 t-inv F
  0.000000 -0.055556 -0.000000    0.00308642   2 t-inv F
 -0.111111  0.111111  0.000000    0.00308642   3 t-inv F
  0.000000 -0.111111 -0.000000    0.00308642   3 t-inv F
 -0.166667  0.166667  0.000000    0.00308642   4 t-inv F
  0.000000 -0.166667 -0.000000    0.00308642   4 t-inv F
 -0.222222  0.222222  0.000000    0.00308642   5 t-inv F
  0.000000 -0.222222 -0.000000    0.00308642   5 t-inv F
 -0.277778  0.277778  0.000000    0.00308642   6 t-inv F
  0.000000 -0.277778 -0.000000    0.00308642   6 t-inv F
 -0.333333  0.333333  0.000000    0.00308642   7 t-inv F
  0.000000 -0.333333 -0.000000    0.00308642   7 t-inv F
 -0.388889  0.388889  0.000000    0.00308642   8 t-inv F
  0.000000 -0.388889 -0.000000    0.00308642   8 t-inv F
 -0.444444  0.444444  0.000000    0.00308642   9 t-inv F
  0.000000 -0.444444 -0.000000    0.00308642   9 t-inv F
 -0.500000  0.500000  0.000000    0.00308642  10 t-inv F
  0.000000 -0.500000 -0.000000    0.00308642  10 t-inv F
 -0.055556  0.111111  0.000000    0.00308642  11 t-inv F
  0.055556 -0.111111 -0.000000    0.00308642  11 t-inv F
 -0.111111  0.055556  0.000000    0.00308642  11 t-inv F
 -0.055556 -0.055556 -0.000000    0.00308642  11 t-inv F
  0.111111 -0.055556  0.000000    0.00308642  11 t-inv F
 -0.111111  0.166667  0.000000    0.00308642  12 t-inv F
  0.055556 -0.166667 -0.000000    0.00308642  12 t-inv F
 -0.166667  0.111111  0.000000    0.00308642  12 t-inv F
 -0.055556 -0.111111 -0.000000    0.00308642  12 t-inv F
  0.166667 -0.055556  0.000000    0.00308642  12 t-inv F
 -0.166667  0.222222  0.000000    0.00308642  13 t-inv F
  0.055556 -0.222222 -0.000000    0.00308642  13 t-inv F
 -0.222222  0.166667  0.000000    0.00308642  13 t-inv F
 -0.055556 -0.166667 -0.000000    0.00308642  13 t-inv F
  0.222222 -0.055556  0.000000    0.00308642  13 t-inv F
 -0.222222  0.277778  0.000000    0.00308642  14 t-inv F
  0.055556 -0.277778 -0.000000    0.00308642  14 t-inv F
 -0.277778  0.222222  0.000000    0.00308642  14 t-inv F
 -0.055556 -0.222222 -0.000000    0.00308642  14 t-inv F
  0.277778 -0.055556  0.000000    0.00308642  14 t-inv F
 -0.277778  0.333333  0.000000    0.00308642  15 t-inv F
  0.055556 -0.333333 -0.000000    0.00308642  15 t-inv F
 -0.333333  0.277778  0.000000    0.00308642  15 t-inv F
 -0.055556 -0.277778 -0.000000    0.00308642  15 t-inv F
  0.333333 -0.055556  0.000000    0.00308642  15 t-inv F
 -0.333333  0.388889  0.000000    0.00308642  16 t-inv F
  0.055556 -0.388889 -0.000000    0.00308642  16 t-inv F
 -0.388889  0.333333  0.000000    0.00308642  16 t-inv F
 -0.055556 -0.333333 -0.000000    0.00308642  16 t-inv F
  0.388889 -0.055556  0.000000    0.00308642  16 t-inv F
 -0.388889  0.444444  0.000000    0.00308642  17 t-inv F
  0.055556 -0.444444 -0.000000    0.00308642  17 t-inv F
 -0.444444  0.388889  0.000000    0.00308642  17 t-inv F
 -0.055556 -0.388889 -0.000000    0.00308642  17 t-inv F
  0.444444 -0.055556  0.000000    0.00308642  17 t-inv F
 -0.444444  0.500000  0.000000    0.00308642  18 t-inv F
  0.055556 -0.500000 -0.000000    0.00308642  18 t-inv F
 -0.500000  0.444444  0.000000    0.00308642  18 t-inv F
 -0.055556 -0.444444 -0.000000    0.00308642  18 t-inv F
  0.500000 -0.055556  0.000000    0.00308642  18 t-inv F
 -0.111111  0.222222  0.000000    0.00308642  19 t-inv F
  0.111111 -0.222222 -0.000000    0.00308642  19 t-inv F
 -0.222222  0.111111  0.000000    0.00308642  19 t-inv F
 -0.111111 -0.111111 -0.000000    0.00308642  19 t-inv F
  0.222222 -0.111111  0.000000    0.00308642  19 t-inv F
 -0.166667  0.277778  0.000000    0.00308642  20 t-inv F
  0.111111 -0.277778 -0.000000    0.00308642  20 t-inv F
 -0.277778  0.166667  0.000000    0.00308642  20 t-inv F
 -0.111111 -0.166667 -0.000000    0.00308642  20 t-inv F
  0.277778 -0.111111  0.000000    0.00308642  20 t-inv F
 -0.222222  0.333333  0.000000    0.00308642  21 t-inv F
  0.111111 -0.333333 -0.000000    0.00308642  21 t-inv F
 -0.333333  0.222222  0.000000    0.00308642  21 t-inv F
 -0.111111 -0.222222 -0.000000    0.00308642  21 t-inv F
  0.333333 -0.111111  0.000000    0.00308642  21 t-inv F
 -0.277778  0.388889  0.000000    0.00308642  22 t-inv F
  0.111111 -0.388889 -0.000000    0.00308642  22 t-inv F
 -0.388889  0.277778  0.000000    0.00308642  22 t-inv F
 -0.111111 -0.277778 -0.000000    0.00308642  22 t-inv F
  0.388889 -0.111111  0.000000    0.00308642  22 t-inv F
 -0.333333  0.444444  0.000000    0.00308642  23 t-inv F
  0.111111 -0.444444 -0.000000    0.00308642  23 t-inv F
 -0.444444  0.333333  0.000000    0.00308642  23 t-inv F
 -0.111111 -0.333333 -0.000000    0.00308642  23 t-inv F
  0.444444 -0.111111  0.000000    0.00308642  23 t-inv F
 -0.388889  0.500000  0.000000    0.00308642  24 t-inv F
  0.111111 -0.500000 -0.000000    0.00308642  24 t-inv F
 -0.500000  0.388889  0.000000    0.00308642  24 t-inv F
 -0.111111 -0.388889 -0.000000    0.00308642  24 t-inv F
  0.500000 -0.111111  0.000000    0.00308642  24 t-inv F
 -0.444444  0.555556  0.000000    0.00308642  25 t-inv F
  0.111111 -0.555556 -0.000000    0.00308642  25 t-inv F
 -0.555556  0.444444  0.000000    0.00308642  25 t-inv F
 -0.111111 -0.444444 -0.000000    0.00308642  25 t-inv F
  0.555556 -0.111111  0.000000    0.00308642  25 t-inv F
 -0.166667  0.333333  0.000000    0.00308642  26 t-inv F
  0.166667 -0.333333 -0.000000    0.00308642  26 t-inv F
 -0.333333  0.166667  0.000000    0.00308642  26 t-inv F
 -0.166667 -0.166667 -0.000000    0.00308642  26 t-inv F
  0.333333 -0.166667  0.000000    0.00308642  26 t-inv F
 -0.222222  0.388889  0.000000    0.00308642  27 t-inv F
  0.166667 -0.388889 -0.000000    0.00308642  27 t-inv F
 -0.388889  0.222222  0.000000    0.00308642  27 t-inv F
 -0.166667 -0.222222 -0.000000    0.00308642  27 t-inv F
  0.388889 -0.166667  0.000000    0.00308642  27 t-inv F
 -0.277778  0.444444  0.000000    0.00308642  28 t-inv F
  0.166667 -0.444444 -0.000000    0.00308642  28 t-inv F
 -0.444444  0.277778  0.000000    0.00308642  28 t-inv F
 -0.166667 -0.277778 -0.000000    0.00308642  28 t-inv F
  0.444444 -0.166667  0.000000    0.00308642  28 t-inv F
 -0.333333  0.500000  0.000000    0.00308642  29 t-inv F
  0.166667 -0.500000 -0.000000    0.00308642  29 t-inv F
 -0.500000  0.333333  0.000000    0.00308642  29 t-inv F
 -0.166667 -0.333333 -0.000000    0.00308642  29 t-inv F
  0.500000 -0.166667  0.000000    0.00308642  29 t-inv F
 -0.388889  0.555556  0.000000    0.00308642  30 t-inv F
  0.166667 -0.555556 -0.000000    0.00308642  30 t-inv F
 -0.555556  0.388889  0.000000    0.00308642  30 t-inv F
 -0.166667 -0.388889 -0.000000    0.00308642  30 t-inv F
  0.555556 -0.166667  0.000000    0.00308642  30 t-inv F
 -0.222222  0.444444  0.000000    0.00308642  31 t-inv F
  0.222222 -0.444444 -0.000000    0.00308642  31 t-inv F
 -0.444444  0.222222  0.000000    0.00308642  31 t-inv F
 -0.222222 -0.222222 -0.000000    0.00308642  31 t-inv F
  0.444444 -0.222222  0.000000    0.00308642  31 t-inv F
 -0.277778  0.500000  0.000000    0.00308642  32 t-inv F
  0.222222 -0.500000 -0.000000    0.00308642  32 t-inv F
 -0.500000  0.277778  0.000000    0.00308642  32 t-inv F
 -0.222222 -0.277778 -0.000000    0.00308642  32 t-inv F
  0.500000 -0.222222  0.000000    0.00308642  32 t-inv F
 -0.333333  0.555556  0.000000    0.00308642  33 t-inv F
  0.222222 -0.555556 -0.000000    0.00308642  33 t-inv F
 -0.555556  0.333333  0.000000    0.00308642  33 t-inv F
 -0.222222 -0.333333 -0.000000    0.00308642  33 t-inv F
  0.555556 -0.222222  0.000000    0.00308642  33 t-inv F
 -0.388889  0.611111  0.000000    0.00308642  34 t-inv F
  0.222222 -0.611111 -0.000000    0.00308642  34 t-inv F
 -0.611111  0.388889  0.000000    0.00308642  34 t-inv F
 -0.222222 -0.388889 -0.000000    0.00308642  34 t-inv F
  0.611111 -0.222222  0.000000    0.00308642  34 t-inv F
 -0.277778  0.555556  0.000000    0.00308642  35 t-inv F
  0.277778 -0.555556 -0.000000    0.00308642  35 t-inv F
 -0.555556  0.277778  0.000000    0.00308642  35 t-inv F
 -0.277778 -0.277778 -0.000000    0.00308642  35 t-inv F
  0.555556 -0.277778  0.000000    0.00308642  35 t-inv F
 -0.333333  0.611111  0.000000    0.00308642  36 t-inv F
  0.277778 -0.611111 -0.000000    0.00308642  36 t-inv F
 -0.611111  0.333333  0.000000    0.00308642  36 t-inv F
 -0.277778 -0.333333 -0.000000    0.00308642  36 t-inv F
  0.611111 -0.277778  0.000000    0.00308642  36 t-inv F
 -0.333333  0.666667  0.000000    0.00308642  37 t-inv F
 -0.055556 -0.000000 -0.000000    0.00308642   2 t-inv T
  0.055556 -0.055556 -0.000000    0.00308642   2 t-inv T
 -0.000000  0.055556  0.000000    0.00308642   2 t-inv T
 -0.111111 -0.000000 -0.000000    0.00308642   3 t-inv T
  0.111111 -0.111111 -0.000000    0.00308642   3 t-inv T
 -0.000000  0.111111  0.000000    0.00308642   3 t-inv T
 -0.166667 -0.000000 -0.000000    0.00308642   4 t-inv T
  0.166667 -0.166667 -0.000000    0.00308642   4 t-inv T
 -0.000000  0.166667  0.000000    0.00308642   4 t-inv T
 -0.222222 -0.000000 -0.000000    0.00308642   5 t-inv T
  0.222222 -0.222222 -0.000000    0.00308642   5 t-inv T
 -0.000000  0.222222  0.000000    0.00308642   5 t-inv T
 -0.277778 -0.000000 -0.000000    0.00308642   6 t-inv T
  0.277778 -0.277778 -0.000000    0.00308642   6 t-inv T
 -0.000000  0.277778  0.000000    0.00308642   6 t-inv T
 -0.333333 -0.000000 -0.000000    0.00308642   7 t-inv T
  0.333333 -0.333333 -0.000000    0.00308642   7 t-inv T
 -0.000000  0.333333  0.000000    0.00308642   7 t-inv T
 -0.388889 -0.000000 -0.000000    0.00308642   8 t-inv T
  0.388889 -0.388889 -0.000000    0.00308642   8 t-inv T
 -0.000000  0.388889  0.000000    0.00308642   8 t-inv T
 -0.444444 -0.000000 -0.000000    0.00308642   9 t-inv T
  0.444444 -0.444444 -0.000000    0.00308642   9 t-inv T
 -0.000000  0.444444  0.000000    0.00308642   9 t-inv T
 -0.111111 -0.055556 -0.000000    0.00308642  12 t-inv T
  0.111111 -0.166667 -0.000000    0.00308642  12 t-inv T
 -0.055556  0.166667  0.000000    0.00308642  12 t-inv T
  0.166667 -0.111111 -0.000000    0.00308642  12 t-inv T
  0.055556  0.111111  0.000000    0.00308642  12 t-inv T
 -0.166667  0.055556 -0.000000    0.00308642  12 t-inv T
 -0.166667 -0.055556 -0.000000    0.00308642  13 t-inv T
  0.166667 -0.222222 -0.000000    0.00308642  13 t-inv T
 -0.055556  0.222222  0.000000    0.00308642  13 t-inv T
  0.222222 -0.166667 -0.000000    0.00308642  13 t-inv T
  0.055556  0.166667  0.000000    0.00308642  13 t-inv T
 -0.222222  0.055556 -0.000000    0.00308642  13 t-inv T
 -0.222222 -0.055556 -0.000000    0.00308642  14 t-inv T
  0.222222 -0.277778 -0.000000    0.00308642  14 t-inv T
 -0.055556  0.277778  0.000000    0.00308642  14 t-inv T
  0.277778 -0.222222 -0.000000    0.00308642  14 t-inv T
  0.055556  0.222222  0.000000    0.00308642  14 t-inv T
 -0.277778  0.055556 -0.000000    0.00308642  14 t-inv T
 -0.277778 -0.055556 -0.000000    0.00308642  15 t-inv T
  0.277778 -0.333333 -0.000000    0.00308642  15 t-inv T
 -0.055556  0.333333  0.000000    0.00308642  15 t-inv T
  0.333333 -0.277778 -0.000000    0.00308642  15 t-inv T
  0.055556  0.277778  0.000000    0.00308642  15 t-inv T
 -0.333333  0.055556 -0.000000    0.00308642  15 t-inv T
 -0.333333 -0.055556 -0.000000    0.00308642  16 t-inv T
  0.333333 -0.388889 -0.000000    0.00308642  16 t-inv T
 -0.055556  0.388889  0.000000    0.00308642  16 t-inv T
  0.388889 -0.333333 -0.000000    0.00308642  16 t-inv T
  0.055556  0.333333  0.000000    0.00308642  16 t-inv T
 -0.388889  0.055556 -0.000000    0.00308642  16 t-inv T
 -0.388889 -0.055556 -0.000000    0.00308642  17 t-inv T
  0.388889 -0.444444 -0.000000    0.00308642  17 t-inv T
 -0.055556  0.444444  0.000000    0.00308642  17 t-inv T
  0.444444 -0.388889 -0.000000    0.00308642  17 t-inv T
  0.055556  0.388889  0.000000    0.00308642  17 t-inv T
 -0.444444  0.055556 -0.000000    0.00308642  17 t-inv T
 -0.444444 -0.055556 -0.000000    0.00308642  18 t-inv T
  0.444444 -0.500000 -0.000000    0.00308642  18 t-inv T
 -0.055556  0.500000  0.000000    0.00308642  18 t-inv T
  0.500000 -0.444444 -0.000000    0.00308642  18 t-inv T
  0.055556  0.444444  0.000000    0.00308642  18 t-inv T
 -0.500000  0.055556 -0.000000    0.00308642  18 t-inv T
 -0.166667 -0.111111 -0.000000    0.00308642  20 t-inv T
  0.166667 -0.277778 -0.000000    0.00308642  20 t-inv T
 -0.111111  0.277778  0.000000    0.00308642  20 t-inv T
  0.277778 -0.166667 -0.000000    0.00308642  20 t-inv T
  0.111111  0.166667  0.000000    0.00308642  20 t-inv T
 -0.277778  0.111111 -0.000000    0.00308642  20 t-inv T
 -0.222222 -0.111111 -0.000000    0.00308642  21 t-inv T
  0.222222 -0.333333 -0.000000    0.00308642  21 t-inv T
 -0.111111  0.333333  0.000000    0.00308642  21 t-inv T
  0.333333 -0.222222 -0.000000    0.00308642  21 t-inv T
  0.111111  0.222222  0.000000    0.00308642  21 t-inv T
 -0.333333  0.111111 -0.000000    0.00308642  21 t-inv T
 -0.277778 -0.111111 -0.000000    0.00308642  22 t-inv T
  0.277778 -0.388889 -0.000000    0.00308642  22 t-inv T
 -0.111111  0.388889  0.000000    0.00308642  22 t-inv T
  0.388889 -0.277778 -0.000000    0.00308642  22 t-inv T
  0.111111  0.277778  0.000000    0.00308642  22 t-inv T
 -0.388889  0.111111 -0.000000    0.00308642  22 t-inv T
 -0.333333 -0.111111 -0.000000    0.00308642  23 t-inv T
  0.333333 -0.444444 -0.000000    0.00308642  23 t-inv T
 -0.111111  0.444444  0.000000    0.00308642  23 t-inv T
  0.444444 -0.333333 -0.000000    0.00308642  23 t-inv T
  0.111111  0.333333  0.000000    0.00308642  23 t-inv T
 -0.444444  0.111111 -0.000000    0.00308642  23 t-inv T
 -0.388889 -0.111111 -0.000000    0.00308642  24 t-inv T
  0.388889 -0.500000 -0.000000    0.00308642  24 t-inv T
 -0.111111  0.500000  0.000000    0.00308642  24 t-inv T
  0.500000 -0.388889 -0.000000    0.00308642  24 t-inv T
  0.111111  0.388889  0.000000    0.00308642  24 t-inv T
 -0.500000  0.111111 -0.000000    0.00308642  24 t-inv T
 -0.222222 -0.166667 -0.000000    0.00308642  27 t-inv T
  0.222222 -0.388889 -0.000000    0.00308642  27 t-inv T
 -0.166667  0.388889  0.000000    0.00308642  27 t-inv T
  0.388889 -0.222222 -0.000000    0.00308642  27 t-inv T
  0.166667  0.222222  0.000000    0.00308642  27 t-inv T
 -0.388889  0.166667 -0.000000    0.00308642  27 t-inv T
 -0.277778 -0.166667 -0.000000    0.00308642  28 t-inv T
  0.277778 -0.444444 -0.000000    0.00308642  28 t-inv T
 -0.166667  0.444444  0.000000    0.00308642  28 t-inv T
  0.444444 -0.277778 -0.000000    0.00308642  28 t-inv T
  0.166667  0.277778  0.000000    0.00308642  28 t-inv T
 -0.444444  0.166667 -0.000000    0.00308642  28 t-inv T
 -0.333333 -0.166667 -0.000000    0.00308642  29 t-inv T
  0.333333 -0.500000 -0.000000    0.00308642  29 t-inv T
 -0.166667  0.500000  0.000000    0.00308642  29 t-inv T
  0.500000 -0.333333 -0.000000    0.00308642  29 t-inv T
  0.166667  0.333333  0.000000    0.00308642  29 t-inv T
 -0.500000  0.166667 -0.000000    0.00308642  29 t-inv T
 -0.388889 -0.166667 -0.000000    0.00308642  30 t-inv T
  0.388889 -0.555556 -0.000000    0.00308642  30 t-inv T
 -0.166667  0.555556  0.000000    0.00308642  30 t-inv T
  0.555556 -0.388889 -0.000000    0.00308642  30 t-inv T
  0.166667  0.388889  0.000000    0.00308642  30 t-inv T
 -0.555556  0.166667 -0.000000    0.00308642  30 t-inv T
 -0.277778 -0.222222 -0.000000    0.00308642  32 t-inv T
  0.277778 -0.500000 -0.000000    0.00308642  32 t-inv T
 -0.222222  0.500000  0.000000    0.00308642  32 t-inv T
  0.500000 -0.277778 -0.000000    0.00308642  32 t-inv T
  0.222222  0.277778  0.000000    0.00308642  32 t-inv T
 -0.500000  0.222222 -0.000000    0.00308642  32 t-inv T
 -0.333333 -0.222222 -0.000000    0.00308642  33 t-inv T
  0.333333 -0.555556 -0.000000    0.00308642  33 t-inv T
 -0.222222  0.555556  0.000000    0.00308642  33 t-inv T
  0.555556 -0.333333 -0.000000    0.00308642  33 t-inv T
  0.222222  0.333333  0.000000    0.00308642  33 t-inv T
 -0.555556  0.222222 -0.000000    0.00308642  33 t-inv T
 -0.333333 -0.277778 -0.000000    0.00308642  36 t-inv T
  0.333333 -0.611111 -0.000000    0.00308642  36 t-inv T
 -0.277778  0.611111  0.000000    0.00308642  36 t-inv T
  0.611111 -0.333333 -0.000000    0.00308642  36 t-inv T
  0.277778  0.333333  0.000000    0.00308642  36 t-inv T
 -0.611111  0.277778 -0.000000    0.00308642  36 t-inv T


--------------------------------------------------------------------------------------------------------




 Dimension of arrays:
   k-points           NKPTS =     37   k-points in BZ     NKDIM =     37   number of bands    NBANDS=     56
   number of dos      NEDOS =    301   number of ions     NIONS =      9
   non local maximal  LDIM  =      8   non local SUM 2l+1 LMDIM =     26
   total plane-waves  NPLWV = 169344
   max r-space proj   IRMAX =      1   max aug-charges    IRDMAX=  18246
   dimension x,y,z NGX =    24 NGY =   24 NGZ =  294
   dimension x,y,z NGXF=    48 NGYF=   48 NGZF=  588
   support grid    NGXF=    48 NGYF=   48 NGZF=  588
   ions per type =               3   6
 NGX,Y,Z   is equivalent  to a cutoff of  11.24, 11.24,  9.78 a.u.
 NGXF,Y,Z  is equivalent  to a cutoff of  22.48, 22.48, 19.55 a.u.


 I would recommend the setting:
   dimension x,y,z NGX =    21 NGY =   21 NGZ =  290
 SYSTEM =  unknown system                          
 POSCAR =   W Te                                   

 Startparameter for this run:
   NWRITE =      2    write-flag & timer
   PREC   = accura    normal or accurate (medium, high low for compatibility)
   ISTART =      0    job   : 0-new  1-cont  2-samecut
   ICHARG =      2    charge: 1-file 2-atom 10-const
   ISPIN  =      1    spin polarized calculation?
   LNONCOLLINEAR =      F non collinear calculations
   LSORBIT =      F    spin-orbit coupling
   INIWAV =      1    electr: 0-lowe 1-rand  2-diag
   LASPH  =      F    aspherical Exc in radial PAW
   METAGGA=      F    non-selfconsistent MetaGGA calc.

 Electronic Relaxation 1
   ENCUT  =  317.1 eV  23.31 Ry    4.83 a.u.   5.15  5.15 72.60*2*pi/ulx,y,z
   ENINI  =  317.1     initial cutoff
   ENAUG  =  807.8 eV  augmentation charge cutoff
   NELM   =     60;   NELMIN=  5; NELMDL= -5     # of ELM steps 
   EDIFF  = 0.1E-07   stopping-criterion for ELM
   LREAL  =      F    real-space projection
   NLSPLINE    = F    spline interpolate recip. space projectors
   LCOMPAT=      F    compatible to vasp.4.4
   GGA_COMPAT  = T    GGA compatible to vasp.4.4-vasp.4.6
   LMAXPAW     = -100 max onsite density
   LMAXMIX     =    2 max onsite mixed and CHGCAR
   VOSKOWN=      0    Vosko Wilk Nusair interpolation
   ROPT   =    0.00000   0.00000
 Ionic relaxation
   EDIFFG = 0.1E-06   stopping-criterion for IOM
   NSW    =      0    number of steps for IOM
   NBLOCK =      1;   KBLOCK =      1    inner block; outer block 
   IBRION =     -1    ionic relax: 0-MD 1-quasi-New 2-CG
   NFREE  =      0    steps in history (QN), initial steepest desc. (CG)
   ISIF   =      2    stress and relaxation
   IWAVPR =     10    prediction:  0-non 1-charg 2-wave 3-comb
   ISYM   =      2    0-nonsym 1-usesym 2-fastsym
   LCORR  =      T    Harris-Foulkes like correction to forces

   POTIM  = 0.5000    time-step for ionic-motion
   TEIN   =    0.0    initial temperature
   TEBEG  =    0.0;   TEEND  =   0.0 temperature during run
   SMASS  =  -3.00    Nose mass-parameter (am)
   estimated Nose-frequenzy (Omega)   =  0.10E-29 period in steps =****** mass=  -0.288E-27a.u.
   SCALEE = 1.0000    scale energy and forces
   NPACO  =    256;   APACO  = 16.0  distance and # of slots for P.C.
   PSTRESS=    0.0 pullay stress

  Mass of Ions in am
   POMASS = 183.85127.60
  Ionic Valenz
   ZVAL   =  14.00  6.00
  Atomic Wigner-Seitz radii
   RWIGS  =  -1.00 -1.00
  virtual crystal weights 
   VCA    =   1.00  1.00
   NELECT =      78.0000    total number of electrons
   NUPDOWN=      -1.0000    fix difference up-down

 DOS related values:
   EMIN   =  10.00;   EMAX   =-10.00  energy-range for DOS
   EFERMI =   0.00
   ISMEAR =    -5;   SIGMA  =   0.01  broadening in eV -4-tet -1-fermi 0-gaus

 Electronic relaxation 2 (details)
   IALGO  =     38    algorithm
   LDIAG  =      T    sub-space diagonalisation (order eigenvalues)
   LSUBROT=      F    optimize rotation matrix (better conditioning)
   TURBO    =      0    0=normal 1=particle mesh
   IRESTART =      0    0=no restart 2=restart with 2 vectors
   NREBOOT  =      0    no. of reboots
   NMIN     =      0    reboot dimension
   EREF     =   0.00    reference energy to select bands
   IMIX   =      4    mixing-type and parameters
     AMIX     =   0.40;   BMIX     =  1.00
     AMIX_MAG =   1.60;   BMIX_MAG =  1.00
     AMIN     =   0.10
     WC   =   100.;   INIMIX=   1;  MIXPRE=   1;  MAXMIX= -45

 Intra band minimization:
   WEIMIN = 0.0000     energy-eigenvalue tresh-hold
   EBREAK =  0.45E-10  absolut break condition
   DEPER  =   0.30     relativ break condition  

   TIME   =   0.40     timestep for ELM

  volume/ion in A,a.u.               =      60.64       409.19
  Fermi-wavevector in a.u.,A,eV,Ry     =   0.855949  1.617508  9.968282  0.732648
  Thomas-Fermi vector in A             =   1.972776
 
 Write flags
   LWAVE  =      T    write WAVECAR
   LCHARG =      T    write CHGCAR
   LVTOT  =      F    write LOCPOT, total local potential
   LVHAR  =      F    write LOCPOT, Hartree potential only
   LELF   =      F    write electronic localiz. function (ELF)
   LORBIT =      0    0 simple, 1 ext, 2 COOP (PROOUT)


 Dipole corrections
   LMONO  =      F    monopole corrections only (constant potential shift)
   LDIPOL =      F    correct potential (dipole corrections)
   IDIPOL =      0    1-x, 2-y, 3-z, 4-all directions 
   EPSILON=  1.0000000 bulk dielectric constant

 Exchange correlation treatment:
   GGA     =    PE    GGA type
   LEXCH   =     8    internal setting for exchange type
   VOSKOWN=      0    Vosko Wilk Nusair interpolation
   LHFCALC =     F    Hartree Fock is set to
   LHFONE  =     F    Hartree Fock one center treatment
   AEXX    =    0.0000 exact exchange contribution

 Linear response parameters
   LEPSILON=     T    determine dielectric tensor
   LRPA    =     F    only Hartree local field effects (RPA)
   LNABLA  =     F    use nabla operator in PAW spheres
   LVEL    =     F    velocity operator in full k-point grid
   LINTERFAST=   F  fast interpolation
   KINTER  =     0    interpolate to denser k-point grid
   CSHIFT  =0.1000    complex shift for real part using Kramers Kronig
   OMEGAMAX=  -1.0    maximum frequency
   DEG_THRESHOLD= 0.2000000E-02 threshold for treating states as degnerate
   RTIME   =    0.100 relaxation time in fs

 Orbital magnetization related:
   ORBITALMAG=     F  switch on orbital magnetization
   LCHIMAG   =     F  perturbation theory with respect to B field
   DQ        =  0.001000  dq finite difference perturbation B field



--------------------------------------------------------------------------------------------------------


 Static calculation
 charge density and potential will be updated during run
 non-spin polarized calculation
 Variant of blocked Davidson
 Davidson routine will perform the subspace rotation
 perform sub-space diagonalisation
    after iterative eigenvector-optimisation
 modified Broyden-mixing scheme, WC =      100.0
 initial mixing is a Kerker type mixing with AMIX =  0.4000 and BMIX =      1.0000
 Hartree-type preconditioning will be used
 using additional bands           17
 reciprocal scheme for non local part
 use partial core corrections
 calculate Harris-corrections to forces 
   (improved forces if not selfconsistent)
 use gradient corrections 
 use of overlap-Matrix (Vanderbilt PP)
 Fermi weights with tetrahedron method with Bloechl corrections


--------------------------------------------------------------------------------------------------------


  energy-cutoff  :      317.13
  volume of cell :      545.73
      direct lattice vectors                 reciprocal lattice vectors
     3.550076222  0.000000000  0.000000000     0.281684093  0.162630387  0.000000000
    -1.775038111  3.074456194  0.000000000     0.000000000  0.325260774  0.000000000
     0.000000000  0.000000000 50.000000000     0.000000000  0.000000000  0.020000000

  length of vectors
     3.550076222  3.550076222 50.000000000     0.325260774  0.325260774  0.020000000


 
 k-points in units of 2pi/SCALE and weight: KPOINTS created by Atomic Simulation Env
   0.00000000  0.00000000  0.00000000       0.003
   0.01564912  0.00903502  0.00000000       0.019
   0.03129823  0.01807004  0.00000000       0.019
   0.04694735  0.02710506  0.00000000       0.019
   0.06259647  0.03614009  0.00000000       0.019
   0.07824558  0.04517511  0.00000000       0.019
   0.09389470  0.05421013  0.00000000       0.019
   0.10954381  0.06324515  0.00000000       0.019
   0.12519293  0.07228017  0.00000000       0.019
   0.14084205  0.08131519  0.00000000       0.009
   0.01564912  0.02710506  0.00000000       0.019
   0.03129823  0.03614009  0.00000000       0.037
   0.04694735  0.04517511  0.00000000       0.037
   0.06259647  0.05421013  0.00000000       0.037
   0.07824558  0.06324515  0.00000000       0.037
   0.09389470  0.07228017  0.00000000       0.037
   0.10954381  0.08131519  0.00000000       0.037
   0.12519293  0.09035021  0.00000000       0.037
   0.03129823  0.05421013  0.00000000       0.019
   0.04694735  0.06324515  0.00000000       0.037
   0.06259647  0.07228017  0.00000000       0.037
   0.07824558  0.08131519  0.00000000       0.037
   0.09389470  0.09035021  0.00000000       0.037
   0.10954381  0.09938524  0.00000000       0.037
   0.12519293  0.10842026  0.00000000       0.019
   0.04694735  0.08131519  0.00000000       0.019
   0.06259647  0.09035021  0.00000000       0.037
   0.07824558  0.09938524  0.00000000       0.037
   0.09389470  0.10842026  0.00000000       0.037
   0.10954381  0.11745528  0.00000000       0.037
   0.06259647  0.10842026  0.00000000       0.019
   0.07824558  0.11745528  0.00000000       0.037
   0.09389470  0.12649030  0.00000000       0.037
   0.10954381  0.13552532  0.00000000       0.019
   0.07824558  0.13552532  0.00000000       0.019
   0.09389470  0.14456034  0.00000000       0.037
   0.09389470  0.16263039  0.00000000       0.006
 
 k-points in reciprocal lattice and weights: KPOINTS created by Atomic Simulation Env
   0.00000000  0.00000000  0.00000000       0.003
   0.05555556  0.00000000  0.00000000       0.019
   0.11111111  0.00000000  0.00000000       0.019
   0.16666667  0.00000000  0.00000000       0.019
   0.22222222  0.00000000  0.00000000       0.019
   0.27777778  0.00000000  0.00000000       0.019
   0.33333333  0.00000000  0.00000000       0.019
   0.38888889  0.00000000  0.00000000       0.019
   0.44444444  0.00000000  0.00000000       0.019
   0.50000000  0.00000000  0.00000000       0.009
   0.05555556  0.05555556  0.00000000       0.019
   0.11111111  0.05555556  0.00000000       0.037
   0.16666667  0.05555556  0.00000000       0.037
   0.22222222  0.05555556  0.00000000       0.037
   0.27777778  0.05555556  0.00000000       0.037
   0.33333333  0.05555556  0.00000000       0.037
   0.38888889  0.05555556  0.00000000       0.037
   0.44444444  0.05555556  0.00000000       0.037
   0.11111111  0.11111111  0.00000000       0.019
   0.16666667  0.11111111  0.00000000       0.037
   0.22222222  0.11111111  0.00000000       0.037
   0.27777778  0.11111111  0.00000000       0.037
   0.33333333  0.11111111  0.00000000       0.037
   0.38888889  0.11111111  0.00000000       0.037
   0.44444444  0.11111111  0.00000000       0.019
   0.16666667  0.16666667  0.00000000       0.019
   0.22222222  0.16666667  0.00000000       0.037
   0.27777778  0.16666667  0.00000000       0.037
   0.33333333  0.16666667  0.00000000       0.037
   0.38888889  0.16666667  0.00000000       0.037
   0.22222222  0.22222222  0.00000000       0.019
   0.27777778  0.22222222  0.00000000       0.037
   0.33333333  0.22222222  0.00000000       0.037
   0.38888889  0.22222222  0.00000000       0.019
   0.27777778  0.27777778  0.00000000       0.019
   0.33333333  0.27777778  0.00000000       0.037
   0.33333333  0.33333333  0.00000000       0.006
 
 position of ions in fractional coordinates (direct lattice) 
   0.16666667  0.33333333  0.35880000
   0.83333333  0.66666667  0.50000000
   0.16666667  0.33333333  0.64120000
   0.83333333  0.66666667  0.39503924
   0.83333333  0.66666667  0.32256076
   0.16666667  0.33333333  0.53623924
   0.16666667  0.33333333  0.46376076
   0.83333333  0.66666667  0.67743924
   0.83333333  0.66666667  0.60496076
 
 position of ions in cartesian coordinates  (Angst):
  -0.00000000  1.02481873 17.94000000
   1.77503811  2.04963746 25.00000000
  -0.00000000  1.02481873 32.06000000
   1.77503811  2.04963746 19.75196221
   1.77503811  2.04963746 16.12803779
  -0.00000000  1.02481873 26.81196221
  -0.00000000  1.02481873 23.18803779
   1.77503811  2.04963746 33.87196221
   1.77503811  2.04963746 30.24803779
 


--------------------------------------------------------------------------------------------------------


 k-point  1 :   0.0000 0.0000 0.0000  plane waves:    6937
 k-point  2 :   0.0556 0.0000 0.0000  plane waves:    6949
 k-point  3 :   0.1111 0.0000 0.0000  plane waves:    6915
 k-point  4 :   0.1667 0.0000 0.0000  plane waves:    6927
 k-point  5 :   0.2222 0.0000 0.0000  plane waves:    6983
 k-point  6 :   0.2778 0.0000 0.0000  plane waves:    7013
 k-point  7 :   0.3333 0.0000 0.0000  plane waves:    7017
 k-point  8 :   0.3889 0.0000 0.0000  plane waves:    7031
 k-point  9 :   0.4444 0.0000 0.0000  plane waves:    7031
 k-point 10 :   0.5000 0.0000 0.0000  plane waves:    7042
 k-point 11 :   0.0556 0.0556 0.0000  plane waves:    6931
 k-point 12 :   0.1111 0.0556 0.0000  plane waves:    6925
 k-point 13 :   0.1667 0.0556 0.0000  plane waves:    6950
 k-point 14 :   0.2222 0.0556 0.0000  plane waves:    7000
 k-point 15 :   0.2778 0.0556 0.0000  plane waves:    7018
 k-point 16 :   0.3333 0.0556 0.0000  plane waves:    7028
 k-point 17 :   0.3889 0.0556 0.0000  plane waves:    7035
 k-point 18 :   0.4444 0.0556 0.0000  plane waves:    7024
 k-point 19 :   0.1111 0.1111 0.0000  plane waves:    6963
 k-point 20 :   0.1667 0.1111 0.0000  plane waves:    6972
 k-point 21 :   0.2222 0.1111 0.0000  plane waves:    6994
 k-point 22 :   0.2778 0.1111 0.0000  plane waves:    7025
 k-point 23 :   0.3333 0.1111 0.0000  plane waves:    7033
 k-point 24 :   0.3889 0.1111 0.0000  plane waves:    7033
 k-point 25 :   0.4444 0.1111 0.0000  plane waves:    7024
 k-point 26 :   0.1667 0.1667 0.0000  plane waves:    6971
 k-point 27 :   0.2222 0.1667 0.0000  plane waves:    7005
 k-point 28 :   0.2778 0.1667 0.0000  plane waves:    7005
 k-point 29 :   0.3333 0.1667 0.0000  plane waves:    7024
 k-point 30 :   0.3889 0.1667 0.0000  plane waves:    7005
 k-point 31 :   0.2222 0.2222 0.0000  plane waves:    7015
 k-point 32 :   0.2778 0.2222 0.0000  plane waves:    7013
 k-point 33 :   0.3333 0.2222 0.0000  plane waves:    7014
 k-point 34 :   0.3889 0.2222 0.0000  plane waves:    6993
 k-point 35 :   0.2778 0.2778 0.0000  plane waves:    7009
 k-point 36 :   0.3333 0.2778 0.0000  plane waves:    6982
 k-point 37 :   0.3333 0.3333 0.0000  plane waves:    6969

 maximum and minimum number of plane-waves per node :      7042     6915

 maximum number of plane-waves:      7042
 maximum index in each direction: 
   IXMAX=    5   IYMAX=    5   IZMAX=   72
   IXMIN=   -5   IYMIN=   -5   IZMIN=  -72

 NGX is ok and might be reduce to  22
 NGY is ok and might be reduce to  22
 NGZ is ok and might be reduce to 290

 serial   3D FFT for wavefunctions
 parallel 3D FFT for charge:
    minimum data exchange during FFTs selected (reduces bandwidth)


 total amount of memory used by VASP on root node   160968. kBytes
========================================================================

   base      :      30000. kBytes
   nonl-proj :     109622. kBytes
   fftplans  :       2517. kBytes
   grid      :       9951. kBytes
   one-center:        292. kBytes
   wavefun   :       8586. kBytes
 
     INWAV:  cpu time    0.0000: real time    0.0000
 Broyden mixing: mesh for mixing (old mesh)
   NGX = 11   NGY = 11   NGZ =145
  (NGX  = 48   NGY  = 48   NGZ  =588)
  gives a total of  17545 points

 initial charge density was supplied:
 charge density of overlapping atoms calculated
 number of electron      78.0000000 magnetization 
 keeping initial charge density in first step


--------------------------------------------------------------------------------------------------------


 Maximum index for augmentation-charges          988 (set IRDMAX)


--------------------------------------------------------------------------------------------------------


 First call to EWALD:  gamma=   0.217
 Maximum number of real-space cells 6x 6x 1
 Maximum number of reciprocal cells 1x 1x14

 FEWALD executed in parallel
    FEWALD:  cpu time    0.0010: real time    0.0012


----------------------------------------- Iteration    1(   1)  ---------------------------------------


    POTLOK:  cpu time    0.0400: real time    0.0409
    SETDIJ:  cpu time    0.0070: real time    0.0073
     EDDAV:  cpu time    5.7091: real time    5.7178
 BZINTS: Fermi energy: 10.256541; 78.000000 electrons
         Band energy:-747.292556;  BLOECHL correction: -0.071946
       DOS:  cpu time    0.0170: real time    0.0173
    --------------------------------------------
      LOOP:  cpu time    5.7741: real time    5.7856

 eigenvalue-minimisations  :  5852
 total energy-change (2. order) : 0.4812854E+03  (-0.3216256E+04)
 number of electron      78.0000000 magnetization 
 augmentation part       78.0000000 magnetization 

 Free energy of the ion-electron system (eV)
  ---------------------------------------------------
  alpha Z        PSCENC =        67.94449320
  Ewald energy   TEWEN  =     69110.50137668
  -Hartree energ DENC   =    -75189.83678171
  -exchange      EXHF   =         0.00000000
  -V(xc)+E(xc)   XCENC  =      -223.16269843
  PAW double counting   =      5920.63406133    -5388.10873080
  entropy T*S    EENTRO =         0.00000000
  eigenvalues    EBANDS =      -747.29255558
  atomic energy  EATOM  =      6930.60623844
  Solvation  Ediel_sol  =         0.00000000
  ---------------------------------------------------
  free energy    TOTEN  =       481.28540314 eV

  energy without entropy =      481.28540314  energy(sigma->0) =      481.28540314


--------------------------------------------------------------------------------------------------------




----------------------------------------- Iteration    1(   2)  ---------------------------------------


     EDDAV:  cpu time    6.3260: real time    6.3358
 BZINTS: Fermi energy:  2.522781; 78.000000 electrons
         Band energy:***********;  BLOECHL correction:  0.000000
       DOS:  cpu time    0.0030: real time    0.0035
    --------------------------------------------
      LOOP:  cpu time    6.3310: real time    6.3432

 eigenvalue-minimisations  :  6608
 total energy-change (2. order) :-0.5222717E+03  (-0.5171287E+03)
 number of electron      78.0000000 magnetization 
 augmentation part       78.0000000 magnetization 

 Free energy of the ion-electron system (eV)
  ---------------------------------------------------
  alpha Z        PSCENC =        67.94449320
  Ewald energy   TEWEN  =     69110.50137668
  -Hartree energ DENC   =    -75189.83678171
  -exchange      EXHF   =         0.00000000
  -V(xc)+E(xc)   XCENC  =      -223.16269843
  PAW double counting   =      5920.63406133    -5388.10873080
  entropy T*S    EENTRO =         0.00000000
  eigenvalues    EBANDS =     -1269.56420664
  atomic energy  EATOM  =      6930.60623844
  Solvation  Ediel_sol  =         0.00000000
  ---------------------------------------------------
  free energy    TOTEN  =       -40.98624791 eV

  energy without entropy =      -40.98624791  energy(sigma->0) =      -40.98624791


--------------------------------------------------------------------------------------------------------




----------------------------------------- Iteration    1(   3)  ---------------------------------------


     EDDAV:  cpu time    6.3080: real time    6.3121
 BZINTS: Fermi energy:  1.194004; 78.000000 electrons
         Band energy:***********;  BLOECHL correction:  0.000000
       DOS:  cpu time    0.0040: real time    0.0033
    --------------------------------------------
      LOOP:  cpu time    6.3130: real time    6.3183

 eigenvalue-minimisations  :  6524
 total energy-change (2. order) :-0.2853554E+02  (-0.2842647E+02)
 number of electron      78.0000000 magnetization 
 augmentation part       78.0000000 magnetization 

 Free energy of the ion-electron system (eV)
  ---------------------------------------------------
  alpha Z        PSCENC =        67.94449320
  Ewald energy   TEWEN  =     69110.50137668
  -Hartree energ DENC   =    -75189.83678171
  -exchange      EXHF   =         0.00000000
  -V(xc)+E(xc)   XCENC  =      -223.16269843
  PAW double counting   =      5920.63406133    -5388.10873080
  entropy T*S    EENTRO =         0.00000000
  eigenvalues    EBANDS =     -1298.09974243
  atomic energy  EATOM  =      6930.60623844
  Solvation  Ediel_sol  =         0.00000000
  ---------------------------------------------------
  free energy    TOTEN  =       -69.52178370 eV

  energy without entropy =      -69.52178370  energy(sigma->0) =      -69.52178370


--------------------------------------------------------------------------------------------------------




----------------------------------------- Iteration    1(   4)  ---------------------------------------


     EDDAV:  cpu time    5.2042: real time    5.2089
 BZINTS: Fermi energy:  1.072935; 78.000000 electrons
         Band energy:***********;  BLOECHL correction:  0.000000
       DOS:  cpu time    0.0030: real time    0.0029
    --------------------------------------------
      LOOP:  cpu time    5.2072: real time    5.2147

 eigenvalue-minimisations  :  5292
 total energy-change (2. order) :-0.3880778E+00  (-0.3876031E+00)
 number of electron      78.0000000 magnetization 
 augmentation part       78.0000000 magnetization 

 Free energy of the ion-electron system (eV)
  ---------------------------------------------------
  alpha Z        PSCENC =        67.94449320
  Ewald energy   TEWEN  =     69110.50137668
  -Hartree energ DENC   =    -75189.83678171
  -exchange      EXHF   =         0.00000000
  -V(xc)+E(xc)   XCENC  =      -223.16269843
  PAW double counting   =      5920.63406133    -5388.10873080
  entropy T*S    EENTRO =         0.00000000
  eigenvalues    EBANDS =     -1298.48782021
  atomic energy  EATOM  =      6930.60623844
  Solvation  Ediel_sol  =         0.00000000
  ---------------------------------------------------
  free energy    TOTEN  =       -69.90986148 eV

  energy without entropy =      -69.90986148  energy(sigma->0) =      -69.90986148


--------------------------------------------------------------------------------------------------------




----------------------------------------- Iteration    1(   5)  ---------------------------------------


     EDDAV:  cpu time    6.1741: real time    6.1780
 BZINTS: Fermi energy:  1.220038; 78.000000 electrons
         Band energy:***********;  BLOECHL correction:  0.000000
       DOS:  cpu time    0.0030: real time    0.0033
    CHARGE:  cpu time    0.2970: real time    0.2970
    MIXING:  cpu time    0.0020: real time    0.0015
    --------------------------------------------
      LOOP:  cpu time    6.4770: real time    6.4824

 eigenvalue-minimisations  :  6356
 total energy-change (2. order) :-0.1297657E-01  (-0.1297203E-01)
 number of electron      77.9999977 magnetization 
 augmentation part      -13.5745064 magnetization 

 Broyden mixing:
  rms(total) = 0.13530E+02    rms(broyden)= 0.13530E+02
  rms(prec ) = 0.13533E+02
  weight for this iteration     100.00

 Free energy of the ion-electron system (eV)
  ---------------------------------------------------
  alpha Z        PSCENC =        67.94449320
  Ewald energy   TEWEN  =     69110.50137668
  -Hartree energ DENC   =    -75189.83678171
  -exchange      EXHF   =         0.00000000
  -V(xc)+E(xc)   XCENC  =      -223.16269843
  PAW double counting   =      5920.63406133    -5388.10873080
  entropy T*S    EENTRO =         0.00000000
  eigenvalues    EBANDS =     -1298.50079678
  atomic energy  EATOM  =      6930.60623844
  Solvation  Ediel_sol  =         0.00000000
  ---------------------------------------------------
  free energy    TOTEN  =       -69.92283805 eV

  energy without entropy =      -69.92283805  energy(sigma->0) =      -69.92283805


--------------------------------------------------------------------------------------------------------




----------------------------------------- Iteration    1(   6)  ---------------------------------------


    POTLOK:  cpu time    0.0370: real time    0.0377
    SETDIJ:  cpu time    0.0070: real time    0.0075
     EDDAV:  cpu time    5.0352: real time    5.0375
 BZINTS: Fermi energy: -0.117689; 78.000000 electrons
         Band energy:***********;  BLOECHL correction:  0.000000
       DOS:  cpu time    0.0030: real time    0.0035
    CHARGE:  cpu time    0.2990: real time    0.2988
    MIXING:  cpu time    0.0020: real time    0.0017
    --------------------------------------------
      LOOP:  cpu time    5.3842: real time    5.3900

 eigenvalue-minimisations  :  5040
 total energy-change (2. order) : 0.4172984E+01  (-0.4518550E+01)
 number of electron      77.9999977 magnetization 
 augmentation part      -12.6818820 magnetization 

 Broyden mixing:
  rms(total) = 0.11747E+02    rms(broyden)= 0.11747E+02
  rms(prec ) = 0.11748E+02
  weight for this iteration     100.00

 eigenvalues of (default mixing * dielectric matrix)
  average eigenvalue GAMMA=   4.4857
  4.4857

 Free energy of the ion-electron system (eV)
  ---------------------------------------------------
  alpha Z        PSCENC =        67.94449320
  Ewald energy   TEWEN  =     69110.50137668
  -Hartree energ DENC   =    -75075.18234982
  -exchange      EXHF   =         0.00000000
  -V(xc)+E(xc)   XCENC  =      -225.71143828
  PAW double counting   =      7080.23739780    -6551.80592699
  entropy T*S    EENTRO =         0.00000000
  eigenvalues    EBANDS =     -1402.33964512
  atomic energy  EATOM  =      6930.60623844
  Solvation  Ediel_sol  =         0.00000000
  ---------------------------------------------------
  free energy    TOTEN  =       -65.74985409 eV

  energy without entropy =      -65.74985409  energy(sigma->0) =      -65.74985409


--------------------------------------------------------------------------------------------------------




----------------------------------------- Iteration    1(   7)  ---------------------------------------


    POTLOK:  cpu time    0.0380: real time    0.0399
    SETDIJ:  cpu time    0.0080: real time    0.0076
     EDDAV:  cpu time    5.8401: real time    5.8480
 BZINTS: Fermi energy:  4.094640; 78.000000 electrons
         Band energy:***********;  BLOECHL correction: -0.003506
       DOS:  cpu time    0.0160: real time    0.0156
    CHARGE:  cpu time    0.3010: real time    0.3012
    MIXING:  cpu time    0.0020: real time    0.0014
    --------------------------------------------
      LOOP:  cpu time    6.2061: real time    6.2185

 eigenvalue-minimisations  :  5488
 total energy-change (2. order) :-0.2507818E+02  (-0.2207599E+02)
 number of electron      77.9999976 magnetization 
 augmentation part      -14.0489114 magnetization 

 Broyden mixing:
  rms(total) = 0.16417E+02    rms(broyden)= 0.16417E+02
  rms(prec ) = 0.16435E+02
  weight for this iteration     100.00

 eigenvalues of (default mixing * dielectric matrix)
  average eigenvalue GAMMA=   1.4532
  0.7930  2.1134

 Free energy of the ion-electron system (eV)
  ---------------------------------------------------
  alpha Z        PSCENC =        67.94449320
  Ewald energy   TEWEN  =     69110.50137668
  -Hartree energ DENC   =    -75397.21661587
  -exchange      EXHF   =         0.00000000
  -V(xc)+E(xc)   XCENC  =      -222.83243846
  PAW double counting   =     11967.14899085   -11423.87855602
  entropy T*S    EENTRO =         0.00000000
  eigenvalues    EBANDS =     -1123.10151905
  atomic energy  EATOM  =      6930.60623844
  Solvation  Ediel_sol  =         0.00000000
  ---------------------------------------------------
  free energy    TOTEN  =       -90.82803023 eV

  energy without entropy =      -90.82803023  energy(sigma->0) =      -90.82803023


--------------------------------------------------------------------------------------------------------




----------------------------------------- Iteration    1(   8)  ---------------------------------------


    POTLOK:  cpu time    0.0380: real time    0.0387
    SETDIJ:  cpu time    0.0080: real time    0.0076
     EDDAV:  cpu time    5.8841: real time    5.8905
 BZINTS: Fermi energy:  0.437609; 78.000000 electrons
         Band energy:***********;  BLOECHL correction:  0.000000
       DOS:  cpu time    0.0030: real time    0.0031
    CHARGE:  cpu time    0.2990: real time    0.2998
    MIXING:  cpu time    0.0020: real time    0.0014
    --------------------------------------------
      LOOP:  cpu time    6.2351: real time    6.2436

 eigenvalue-minimisations  :  5544
 total energy-change (2. order) : 0.2692575E+02  (-0.1432929E+02)
 number of electron      77.9999976 magnetization 
 augmentation part      -12.9677510 magnetization 

 Broyden mixing:
  rms(total) = 0.11528E+01    rms(broyden)= 0.11528E+01
  rms(prec ) = 0.11532E+01
  weight for this iteration     100.00

 eigenvalues of (default mixing * dielectric matrix)
  average eigenvalue GAMMA=   1.4160
  2.6344  0.8068  0.8068

 Free energy of the ion-electron system (eV)
  ---------------------------------------------------
  alpha Z        PSCENC =        67.94449320
  Ewald energy   TEWEN  =     69110.50137668
  -Hartree energ DENC   =    -75122.86314942
  -exchange      EXHF   =         0.00000000
  -V(xc)+E(xc)   XCENC  =      -225.58943137
  PAW double counting   =      8992.72578444    -8459.57670864
  entropy T*S    EENTRO =         0.00000000
  eigenvalues    EBANDS =     -1357.65088108
  atomic energy  EATOM  =      6930.60623844
  Solvation  Ediel_sol  =         0.00000000
  ---------------------------------------------------
  free energy    TOTEN  =       -63.90227775 eV

  energy without entropy =      -63.90227775  energy(sigma->0) =      -63.90227775


--------------------------------------------------------------------------------------------------------




----------------------------------------- Iteration    1(   9)  ---------------------------------------


    POTLOK:  cpu time    0.0380: real time    0.0390
    SETDIJ:  cpu time    0.0080: real time    0.0075
     EDDAV:  cpu time    4.9353: real time    5.1622
 BZINTS: Fermi energy:  0.444044; 78.000000 electrons
         Band energy:***********;  BLOECHL correction:  0.000000
       DOS:  cpu time    0.0030: real time    0.0030
    CHARGE:  cpu time    0.2860: real time    0.2860
    MIXING:  cpu time    0.0010: real time    0.0014
    --------------------------------------------
      LOOP:  cpu time    5.2722: real time    5.5026

 eigenvalue-minimisations  :  4816
 total energy-change (2. order) :-0.6004129E+00  (-0.6737060E+00)
 number of electron      77.9999977 magnetization 
 augmentation part      -12.9215256 magnetization 

 Broyden mixing:
  rms(total) = 0.14106E+01    rms(broyden)= 0.14106E+01
  rms(prec ) = 0.14108E+01
  weight for this iteration     100.00

 eigenvalues of (default mixing * dielectric matrix)
  average eigenvalue GAMMA=   1.1297
  2.5127  0.8641  0.8641  0.2781

 Free energy of the ion-electron system (eV)
  ---------------------------------------------------
  alpha Z        PSCENC =        67.94449320
  Ewald energy   TEWEN  =     69110.50137668
  -Hartree energ DENC   =    -75121.70359592
  -exchange      EXHF   =         0.00000000
  -V(xc)+E(xc)   XCENC  =      -225.71776834
  PAW double counting   =      9353.31041778    -8820.01048057
  entropy T*S    EENTRO =         0.00000000
  eigenvalues    EBANDS =     -1359.43337196
  atomic energy  EATOM  =      6930.60623844
  Solvation  Ediel_sol  =         0.00000000
  ---------------------------------------------------
  free energy    TOTEN  =       -64.50269069 eV

  energy without entropy =      -64.50269069  energy(sigma->0) =      -64.50269069


--------------------------------------------------------------------------------------------------------




----------------------------------------- Iteration    1(  10)  ---------------------------------------


    POTLOK:  cpu time    0.0370: real time    0.0373
    SETDIJ:  cpu time    0.0070: real time    0.0075
     EDDAV:  cpu time    6.9529: real time    6.9591
 BZINTS: Fermi energy:  0.449572; 78.000000 electrons
         Band energy:***********;  BLOECHL correction:  0.000000
       DOS:  cpu time    0.0030: real time    0.0030
    CHARGE:  cpu time    0.3020: real time    0.3011
    MIXING:  cpu time    0.0010: real time    0.0017
    --------------------------------------------
      LOOP:  cpu time    7.3039: real time    7.3129

 eigenvalue-minimisations  :  7112
 total energy-change (2. order) :-0.1597477E-02  (-0.1349012E-01)
 number of electron      77.9999977 magnetization 
 augmentation part      -12.9254368 magnetization 

 Broyden mixing:
  rms(total) = 0.96386E+00    rms(broyden)= 0.96386E+00
  rms(prec ) = 0.96411E+00
  weight for this iteration     100.00

 eigenvalues of (default mixing * dielectric matrix)
  average eigenvalue GAMMA=   1.0949
  2.5392  0.8832  0.8832  0.5843  0.5843

 Free energy of the ion-electron system (eV)
  ---------------------------------------------------
  alpha Z        PSCENC =        67.94449320
  Ewald energy   TEWEN  =     69110.50137668
  -Hartree energ DENC   =    -75124.34707390
  -exchange      EXHF   =         0.00000000
  -V(xc)+E(xc)   XCENC  =      -225.67230055
  PAW double counting   =      9215.54815659    -8682.22653334
  entropy T*S    EENTRO =         0.00000000
  eigenvalues    EBANDS =     -1356.85864530
  atomic energy  EATOM  =      6930.60623844
  Solvation  Ediel_sol  =         0.00000000
  ---------------------------------------------------
  free energy    TOTEN  =       -64.50428817 eV

  energy without entropy =      -64.50428817  energy(sigma->0) =      -64.50428817


--------------------------------------------------------------------------------------------------------




----------------------------------------- Iteration    1(  11)  ---------------------------------------


    POTLOK:  cpu time    0.0400: real time    0.0401
    SETDIJ:  cpu time    0.0080: real time    0.0076
     EDDAV:  cpu time    5.4692: real time    5.8508
 BZINTS: Fermi energy:  0.460110; 78.000000 electrons
         Band energy:***********;  BLOECHL correction:  0.000000
       DOS:  cpu time    0.0020: real time    0.0030
    CHARGE:  cpu time    0.2860: real time    0.3066
    MIXING:  cpu time    0.0020: real time    0.0014
    --------------------------------------------
      LOOP:  cpu time    5.8091: real time    6.2122

 eigenvalue-minimisations  :  5460
 total energy-change (2. order) : 0.4717093E-02  (-0.2343867E-03)
 number of electron      77.9999977 magnetization 
 augmentation part      -12.9259731 magnetization 

 Broyden mixing:
  rms(total) = 0.83948E+00    rms(broyden)= 0.83948E+00
  rms(prec ) = 0.83973E+00
  weight for this iteration     100.00

 eigenvalues of (default mixing * dielectric matrix)
  average eigenvalue GAMMA=   1.3540
  2.6278  1.6036  1.6036  0.7950  0.7471  0.7471

 Free energy of the ion-electron system (eV)
  ---------------------------------------------------
  alpha Z        PSCENC =        67.94449320
  Ewald energy   TEWEN  =     69110.50137668
  -Hartree energ DENC   =    -75126.11325782
  -exchange      EXHF   =         0.00000000
  -V(xc)+E(xc)   XCENC  =      -225.65440335
  PAW double counting   =      9162.23702403    -8628.83629728
  entropy T*S    EENTRO =         0.00000000
  eigenvalues    EBANDS =     -1355.18474497
  atomic energy  EATOM  =      6930.60623844
  Solvation  Ediel_sol  =         0.00000000
  ---------------------------------------------------
  free energy    TOTEN  =       -64.49957107 eV

  energy without entropy =      -64.49957107  energy(sigma->0) =      -64.49957107


--------------------------------------------------------------------------------------------------------




----------------------------------------- Iteration    1(  12)  ---------------------------------------


    POTLOK:  cpu time    0.0390: real time    0.0396
    SETDIJ:  cpu time    0.0070: real time    0.0076
     EDDAV:  cpu time    6.1101: real time    6.1923
 BZINTS: Fermi energy:  0.581697; 78.000000 electrons
         Band energy:***********;  BLOECHL correction:  0.000000
       DOS:  cpu time    0.0030: real time    0.0031
    CHARGE:  cpu time    0.3050: real time    0.3052
    MIXING:  cpu time    0.0020: real time    0.0015
    --------------------------------------------
      LOOP:  cpu time    6.4660: real time    6.5520

 eigenvalue-minimisations  :  5880
 total energy-change (2. order) : 0.2314766E-01  (-0.9136670E-02)
 number of electron      77.9999977 magnetization 
 augmentation part      -12.9409023 magnetization 

 Broyden mixing:
  rms(total) = 0.23991E+00    rms(broyden)= 0.23991E+00
  rms(prec ) = 0.23994E+00
  weight for this iteration     100.00

 eigenvalues of (default mixing * dielectric matrix)
  average eigenvalue GAMMA=   1.3216
  2.5027  2.5027  0.9830  0.9405  0.9405  0.6907  0.6907

 Free energy of the ion-electron system (eV)
  ---------------------------------------------------
  alpha Z        PSCENC =        67.94449320
  Ewald energy   TEWEN  =     69110.50137668
  -Hartree energ DENC   =    -75141.49645282
  -exchange      EXHF   =         0.00000000
  -V(xc)+E(xc)   XCENC  =      -225.50759428
  PAW double counting   =      8825.03533568    -8291.09381190
  entropy T*S    EENTRO =         0.00000000
  eigenvalues    EBANDS =     -1340.46600842
  atomic energy  EATOM  =      6930.60623844
  Solvation  Ediel_sol  =         0.00000000
  ---------------------------------------------------
  free energy    TOTEN  =       -64.47642341 eV

  energy without entropy =      -64.47642341  energy(sigma->0) =      -64.47642341


--------------------------------------------------------------------------------------------------------




----------------------------------------- Iteration    1(  13)  ---------------------------------------


    POTLOK:  cpu time    0.0380: real time    0.0476
    SETDIJ:  cpu time    0.0070: real time    0.0077
     EDDAV:  cpu time    5.6011: real time    5.7814
 BZINTS: Fermi energy:  0.601569; 78.000000 electrons
         Band energy:***********;  BLOECHL correction:  0.000000
       DOS:  cpu time    0.0030: real time    0.0029
    CHARGE:  cpu time    0.2900: real time    0.2901
    MIXING:  cpu time    0.0010: real time    0.0015
    --------------------------------------------
      LOOP:  cpu time    5.9411: real time    6.1346

 eigenvalue-minimisations  :  5684
 total energy-change (2. order) : 0.2309725E-04  (-0.6295587E-03)
 number of electron      77.9999977 magnetization 
 augmentation part      -12.9389864 magnetization 

 Broyden mixing:
  rms(total) = 0.48578E-01    rms(broyden)= 0.48577E-01
  rms(prec ) = 0.48638E-01
  weight for this iteration     100.00

 eigenvalues of (default mixing * dielectric matrix)
  average eigenvalue GAMMA=   1.2761
  2.5213  2.5213  1.0008  1.0008  0.9985  0.7438  0.7438  0.6788

 Free energy of the ion-electron system (eV)
  ---------------------------------------------------
  alpha Z        PSCENC =        67.94449320
  Ewald energy   TEWEN  =     69110.50137668
  -Hartree energ DENC   =    -75143.61159226
  -exchange      EXHF   =         0.00000000
  -V(xc)+E(xc)   XCENC  =      -225.48940690
  PAW double counting   =      8759.88984385    -8225.92418805
  entropy T*S    EENTRO =         0.00000000
  eigenvalues    EBANDS =     -1338.39316528
  atomic energy  EATOM  =      6930.60623844
  Solvation  Ediel_sol  =         0.00000000
  ---------------------------------------------------
  free energy    TOTEN  =       -64.47640032 eV

  energy without entropy =      -64.47640032  energy(sigma->0) =      -64.47640032


--------------------------------------------------------------------------------------------------------




----------------------------------------- Iteration    1(  14)  ---------------------------------------


    POTLOK:  cpu time    0.0360: real time    0.0370
    SETDIJ:  cpu time    0.0080: real time    0.0076
     EDDAV:  cpu time    6.4860: real time    6.6426
 BZINTS: Fermi energy:  0.611962; 78.000000 electrons
         Band energy:***********;  BLOECHL correction:  0.000000
       DOS:  cpu time    0.0030: real time    0.0030
    CHARGE:  cpu time    0.3030: real time    0.3026
    MIXING:  cpu time    0.0010: real time    0.0016
    --------------------------------------------
      LOOP:  cpu time    6.8380: real time    6.9972

[...]
    --------------------------------------------
      LOOP:  cpu time    7.0289: real time    7.0369

 Broyden mixing:
  rms(total) = 0.11690E-04    rms(broyden)= 0.11690E-04
  rms(prec ) = 0.13038E-04
  weight for this iteration     100.00

 eigenvalues of (default mixing * dielectric matrix)
  average eigenvalue GAMMA=   2.2774
  7.4582  7.4582  3.9275  3.9275  2.5776  2.5776  1.8796  1.8796  1.5602  0.9482
  0.9482  1.0275  1.0275  0.9866  0.6322  0.7812  0.7812  0.6151

 Free energy of the ion-electron system (eV)
  ---------------------------------------------------
  -Hartree energ DENC   =        -0.75819756
  -V(xc)+E(xc)   XCENC  =         0.01098252
  PAW double counting   =         0.02045662       -0.02020406
  entropy T*S    EENTRO =         0.00000000
  eigenvalues    EBANDS =        -0.18890359
  ---------------------------------------------------
  free energy    TOTEN  =        -0.93586607 eV

  energy without entropy =       -0.93586607


----------------------------------------- Iteration    3(  21)  ---------------------------------------


   POT+DIJ:  cpu time    0.0950: real time    0.0962
    HAMIL1:  cpu time    1.1328: real time    1.1337
    LRDIAG:  cpu time    0.1590: real time    0.1590
    LRDIIS:  cpu time    4.5773: real time    4.5804
    LRDIAG:  cpu time    0.1530: real time    0.1524
    MIXING:  cpu time    0.0030: real time    0.0030
    --------------------------------------------
      LOOP:  cpu time    6.7950: real time    6.8019

 Broyden mixing:
  rms(total) = 0.53555E-05    rms(broyden)= 0.53553E-05
  rms(prec ) = 0.60388E-05
  weight for this iteration     100.00

 eigenvalues of (default mixing * dielectric matrix)
  average eigenvalue GAMMA=   2.3370
  7.7912  7.7912  4.1715  4.1715  2.7240  2.7240  2.0332  2.0332  1.6247  1.6247
  0.9467  0.9467  1.0024  1.0024  1.0052  0.6322  0.7824  0.7824  0.6127

 Free energy of the ion-electron system (eV)
  ---------------------------------------------------
  -Hartree energ DENC   =        -0.75819528
  -V(xc)+E(xc)   XCENC  =         0.01098119
  PAW double counting   =         0.02046746       -0.02021498
  entropy T*S    EENTRO =         0.00000000
  eigenvalues    EBANDS =        -0.18888477
  ---------------------------------------------------
  free energy    TOTEN  =        -0.93584637 eV

  energy without entropy =       -0.93584637


----------------------------------------- Iteration    3(  22)  ---------------------------------------


   POT+DIJ:  cpu time    0.0940: real time    0.0945
    HAMIL1:  cpu time    1.1298: real time    1.1315
    LRDIAG:  cpu time    0.1590: real time    0.1590
    LRDIIS:  cpu time    4.4613: real time    4.4638
    LRDIAG:  cpu time    0.1530: real time    0.1527
    MIXING:  cpu time    0.0030: real time    0.0031
    --------------------------------------------
      LOOP:  cpu time    6.6810: real time    6.6877

 Broyden mixing:
  rms(total) = 0.24520E-05    rms(broyden)= 0.24519E-05
  rms(prec ) = 0.27466E-05
  weight for this iteration     100.00

 eigenvalues of (default mixing * dielectric matrix)
  average eigenvalue GAMMA=   2.3883
  8.2302  8.2302  5.1243  3.8536  2.8855  2.8855  2.1333  2.1333  1.8157  1.6375
  0.9472  0.9472  1.0981  1.0981  0.9670  0.9670  0.6322  0.7820  0.7820  0.6163

 Free energy of the ion-electron system (eV)
  ---------------------------------------------------
  -Hartree energ DENC   =        -0.75819657
  -V(xc)+E(xc)   XCENC  =         0.01098063
  PAW double counting   =         0.02046597       -0.02021342
  entropy T*S    EENTRO =         0.00000000
  eigenvalues    EBANDS =        -0.18887376
  ---------------------------------------------------
  free energy    TOTEN  =        -0.93583714 eV

  energy without entropy =       -0.93583714


----------------------------------------- Iteration    3(  23)  ---------------------------------------


   POT+DIJ:  cpu time    0.0940: real time    0.0948
    HAMIL1:  cpu time    1.1298: real time    1.1295
    LRDIAG:  cpu time    0.1580: real time    0.1585
    LRDIIS:  cpu time    4.3393: real time    4.3413
    LRDIAG:  cpu time    0.1530: real time    0.1527
    MIXING:  cpu time    0.0030: real time    0.0032
    --------------------------------------------
      LOOP:  cpu time    6.5620: real time    6.5674

 Broyden mixing:
  rms(total) = 0.15812E-05    rms(broyden)= 0.15812E-05
  rms(prec ) = 0.16470E-05
  weight for this iteration     100.00

 eigenvalues of (default mixing * dielectric matrix)
  average eigenvalue GAMMA=   2.3837
  8.9759  7.9470  5.4205  3.8546  2.8803  2.8803  2.4129  1.9839  1.9839  1.6015
  1.6015  0.9470  0.9470  1.0516  0.9753  0.9753  0.6322  0.7806  0.7806  0.8018
  0.6231

 Free energy of the ion-electron system (eV)
  ---------------------------------------------------
  -Hartree energ DENC   =        -0.75819848
  -V(xc)+E(xc)   XCENC  =         0.01098046
  PAW double counting   =         0.02046306       -0.02021049
  entropy T*S    EENTRO =         0.00000000
  eigenvalues    EBANDS =        -0.18893065
  ---------------------------------------------------
  free energy    TOTEN  =        -0.93589610 eV

  energy without entropy =       -0.93589610


----------------------------------------- Iteration    3(  24)  ---------------------------------------


   POT+DIJ:  cpu time    0.0940: real time    0.0944
    HAMIL1:  cpu time    1.1358: real time    1.1366
    LRDIAG:  cpu time    0.1590: real time    0.1592
    LRDIIS:  cpu time    3.7934: real time    3.7956
    LRDIAG:  cpu time    0.1520: real time    0.1524
    MIXING:  cpu time    0.0030: real time    0.0032
    --------------------------------------------
      LOOP:  cpu time    6.0101: real time    6.0175

 Broyden mixing:
  rms(total) = 0.87875E-06    rms(broyden)= 0.87873E-06
  rms(prec ) = 0.91535E-06
  weight for this iteration     100.00

 eigenvalues of (default mixing * dielectric matrix)
  average eigenvalue GAMMA=   2.4042
  9.3978  7.8954  5.6574  4.0868  3.0167  3.0167  2.4374  2.4374  1.9143  1.9143
  1.6039  0.9471  0.9471  1.0813  1.0055  1.0055  0.9760  0.6322  0.7816  0.7816
  0.7333  0.6226

 Free energy of the ion-electron system (eV)
  ---------------------------------------------------
  -Hartree energ DENC   =        -0.75819896
  -V(xc)+E(xc)   XCENC  =         0.01098047
  PAW double counting   =         0.02046287       -0.02021031
  entropy T*S    EENTRO =         0.00000000
  eigenvalues    EBANDS =        -0.18889341
  ---------------------------------------------------
  free energy    TOTEN  =        -0.93585935 eV

  energy without entropy =       -0.93585935


------------------------ aborting loop because EDIFF is reached ----------------------------------------


 change of polarisation eV/A/(eV/A) component  3 :    -0.000    -0.000     1.838
 dielectric tensor                  component  3 :    -0.000    -0.000     1.609


--------------------------------------------------------------------------------------------------------


    FORLOC:  cpu time    0.0030: real time    0.0033
    FORNL :  cpu time    0.8049: real time    0.8050
    STRESS:  cpu time    3.6704: real time    3.6723
    FORCOR:  cpu time    0.0390: real time    0.0393
    OFIELD:  cpu time    0.0010: real time    0.0003

  Hirshfeld charges:
            ion         q(e)     
   ------------------------------
      1     W           0.216
      2     W           0.215
      3     W           0.216
      4     Te         -0.108
      5     Te         -0.108
      6     Te         -0.107
      7     Te         -0.107
      8     Te         -0.108
      9     Te         -0.108

  Tkatchenko/Scheffler method for vdW energy calculation
  ---------------------------------------------------------------------------------------------

  Parameters of vdW forcefield:
            C6ts              R0ts           ALPHAts        RELVOL
            (au)              (au)            (au)                
   ---------------------------------------------------------------
   W         919.829          4.138         73.991          1.042
   W         923.359          4.140         74.133          1.044
   W         919.829          4.138         73.991          1.042
   Te        408.977          4.237         38.262          1.016
   Te        401.517          4.224         37.911          1.007
   Te        408.971          4.237         38.262          1.016
   Te        408.971          4.237         38.262          1.016
   Te        401.518          4.224         37.911          1.007
   Te        408.976          4.237         38.262          1.016
  Edisp (eV):   -2.69589
    FORVDW:  cpu time    0.3180: real time    0.3183
    FORLOC:  cpu time    0.0030: real time    0.0034
    FORNL :  cpu time    0.8049: real time    0.8049
    STRESS:  cpu time    3.6714: real time    3.6742
    FORCOR:  cpu time    0.0430: real time    0.0428
    OFIELD:  cpu time    0.0000: real time    0.0003

  Hirshfeld charges:
            ion         q(e)     
   ------------------------------
      1     W           0.216
      2     W           0.215
      3     W           0.216
      4     Te         -0.108
      5     Te         -0.108
      6     Te         -0.107
      7     Te         -0.107
      8     Te         -0.108
      9     Te         -0.108

  Tkatchenko/Scheffler method for vdW energy calculation
  ---------------------------------------------------------------------------------------------

  Parameters of vdW forcefield:
            C6ts              R0ts           ALPHAts        RELVOL
            (au)              (au)            (au)                
   ---------------------------------------------------------------
   W         919.829          4.138         73.991          1.042
   W         923.359          4.140         74.133          1.044
   W         919.829          4.138         73.991          1.042
   Te        408.976          4.237         38.262          1.016
   Te        401.518          4.224         37.911          1.007
   Te        408.971          4.237         38.262          1.016
   Te        408.971          4.237         38.262          1.016
   Te        401.517          4.224         37.911          1.007
   Te        408.977          4.237         38.262          1.016
  Edisp (eV):   -2.69589
    FORVDW:  cpu time    0.3190: real time    0.3188
    FORNLD:  cpu time    2.5466: real time    2.5491

 PIEZOELECTRIC TENSOR FIELD DIRECTION 3  (e Angst)
 -----------------------------------------------------------------------------
     0.00010 -0.00000  0.00000           (  0.00000  0.00000  0.00000)
    -0.00000  0.00010  0.00000           (  0.00000  0.00000  0.00000)
     0.00000  0.00000  0.00004           (  0.00000  0.00000 -0.00000)

 PIEZOELECTRIC TENSOR FIELD DIRECTION 3  (C/m^2)
 -----------------------------------------------------------------------------
     0.00000 -0.00000  0.00000
    -0.00000  0.00000  0.00000
     0.00000  0.00000  0.00000


      POSITION         DIRECTION 3           BORN EFFECTIVE CHARGE    (rigid.aug.   ionic)
 -----------------------------------------------------------------------------------------
     -0.00000      1.02482     17.94000    -0.00000  0.00000-20.00489 (  1.94634 14.00000)
      1.77504      2.04964     25.00000    -0.00000  0.00000 -1.47120 (  1.94639 14.00000)
     -0.00000      1.02482     32.06000     0.00000 -0.00000-20.00487 (  1.94634 14.00000)
      1.77504      2.04964     19.75196     0.00000 -0.00000 -0.04309 (  1.18311  6.00000)
      1.77504      2.04964     16.12804     0.00000  0.00000  1.76200 (  1.18266  6.00000)
     -0.00000      1.02482     26.81196     0.00000 -0.00000  0.12674 (  1.18307  6.00000)
     -0.00000      1.02482     23.18804     0.00000 -0.00000  0.12675 (  1.18307  6.00000)
      1.77504      2.04964     33.87196     0.00000  0.00000  1.76200 (  1.18266  6.00000)
      1.77504      2.04964     30.24804     0.00000 -0.00000 -0.04309 (  1.18311  6.00000)
 -----------------------------------------------------------------------------------------
    total drift (improves with k-points):   0.00000 -0.00000-37.78966




--------------------------------------------------------------------------------------------------------


  LATTYP: Found a hexagonal cell.
 ALAT       =     3.5500762221
 C/A-ratio  =    14.0842046402
  
  Lattice vectors:
  
 A1 = (   3.5500762221,   0.0000000000,   0.0000000000)
 A2 = (  -1.7750381110,   3.0744561937,   0.0000000000)
 A3 = (   0.0000000000,   0.0000000000,  50.0000000000)


Analysis of symmetry for initial positions (statically):
=====================================================================
 Subroutine PRICEL returns:
 Original cell was already a primitive cell.
 

 Routine SETGRP: Setting up the symmetry group for a 
 hexagonal supercell.


 Subroutine GETGRP returns: Found 12 space group operations
 (whereof  4 operations were pure point group operations)
 out of a pool of 24 trial point group operations.


The static configuration has the point symmetry C_2v.
 The point group associated with its full space group is D_3h.


Analysis of symmetry for dynamics (positions and initial velocities):
=====================================================================
 Subroutine PRICEL returns:
 Original cell was already a primitive cell.
 

 Routine SETGRP: Setting up the symmetry group for a 
 hexagonal supercell.


 Subroutine GETGRP returns: Found 12 space group operations
 (whereof  4 operations were pure point group operations)
 out of a pool of 24 trial point group operations.


The dynamic configuration has the point symmetry C_2v.
 The point group associated with its full space group is D_3h.


 Subroutine INISYM returns: Found 12 space group operations
 (whereof  4 operations are pure point group operations),
 and found     1 'primitive' translations



 MACROSCOPIC STATIC DIELECTRIC TENSOR (including local field effects in DFT)
 ------------------------------------------------------
           8.489864     0.000000     0.000000
           0.000000     8.489864     0.000000
           0.000000     0.000000     1.609314
 ------------------------------------------------------



--------------------------------------------------------------------------------------------------------


  LATTYP: Found a hexagonal cell.
 ALAT       =     3.5500762221
 C/A-ratio  =    14.0842046402
  
  Lattice vectors:
  
 A1 = (   3.5500762221,   0.0000000000,   0.0000000000)
 A2 = (  -1.7750381110,   3.0744561937,   0.0000000000)
 A3 = (   0.0000000000,   0.0000000000,  50.0000000000)


Analysis of symmetry for initial positions (statically):
=====================================================================
 Subroutine PRICEL returns:
 Original cell was already a primitive cell.
 

 Routine SETGRP: Setting up the symmetry group for a 
 hexagonal supercell.


 Subroutine GETGRP returns: Found 12 space group operations
 (whereof  4 operations were pure point group operations)
 out of a pool of 24 trial point group operations.


The static configuration has the point symmetry C_2v.
 The point group associated with its full space group is D_3h.


Analysis of symmetry for dynamics (positions and initial velocities):
=====================================================================
 Subroutine PRICEL returns:
 Original cell was already a primitive cell.
 

 Routine SETGRP: Setting up the symmetry group for a 
 hexagonal supercell.


 Subroutine GETGRP returns: Found 12 space group operations
 (whereof  4 operations were pure point group operations)
 out of a pool of 24 trial point group operations.


The dynamic configuration has the point symmetry C_2v.
 The point group associated with its full space group is D_3h.


 Subroutine INISYM returns: Found 12 space group operations
 (whereof  4 operations are pure point group operations),
 and found     1 'primitive' translations



--------------------------------------------------------------------------------------------------------




 MACROSCOPIC STATIC DIELECTRIC TENSOR (including local field effects in DFT)
 ------------------------------------------------------
           8.489864     0.000000     0.000000
           0.000000     8.489864     0.000000
           0.000000     0.000000     1.609314
 ------------------------------------------------------


 PIEZOELECTRIC TENSOR  for field in x, y, z        (e  Angst)
          XX          YY          ZZ          XY          YZ          ZX
  --------------------------------------------------------------------------------
  x    -0.01218     0.00921    -0.00101    -0.81170     0.00000     0.00000
  y    -0.82235     0.82741     0.00404     0.00000     0.00000     0.00000
  z     0.00010     0.00010     0.00004    -0.00000     0.00000     0.00000

 PIEZOELECTRIC TENSOR  for field in x, y, z        (C/m^2)
          XX          YY          ZZ          XY          YZ          ZX
  --------------------------------------------------------------------------------
  x     0.00000    -0.00000     0.00000    -0.02402     0.00000     0.00000
  y    -0.02402     0.02402     0.00000    -0.00000     0.00000     0.00000
  z     0.00000     0.00000     0.00000     0.00000    -0.00000    -0.00000
 
 BORN EFFECTIVE CHARGES (in e, cummulative output)
 -------------------------------------------------
 ion    1
    1    -2.51512    -0.00107     0.00002
    2    -0.00000    -2.51588    -0.00007
    3    -0.00000     0.00000   -20.00489
 ion    2
    1    -2.51944     0.00111     0.00000
    2    -0.00000    -2.51879     0.00000
    3    -0.00000     0.00000    -1.47120
 ion    3
    1    -2.51512    -0.00107    -0.00002
    2    -0.00000    -2.51588     0.00007
    3     0.00000    -0.00000   -20.00487
 ion    4
    1     1.28191    -0.00027    -0.00045
    2     0.00000     1.28230     0.00123
    3     0.00000    -0.00000    -0.04309
 ion    5
    1     1.28013    -0.00029     0.00028
    2     0.00000     1.28043    -0.00079
    3     0.00000     0.00000     1.76200
 ion    6
    1     1.28363     0.00027    -0.00044
    2     0.00000     1.28323     0.00117
    3     0.00000    -0.00000     0.12674
 ion    7
    1     1.28363     0.00027     0.00044
    2     0.00000     1.28323    -0.00117
    3     0.00000    -0.00000     0.12675
 ion    8
    1     1.28013    -0.00029    -0.00028
    2     0.00000     1.28043     0.00079
    3     0.00000     0.00000     1.76200
 ion    9
    1     1.28191    -0.00027     0.00045
    2     0.00000     1.28230    -0.00123
    3     0.00000    -0.00000    -0.04309


--------------------------------------------------------------------------------------------------------


 writing wavefunctions
     LOOP+:  cpu time 1772.3926: real time 1779.2519
    4ORBIT:  cpu time    0.0000: real time    0.0000
 BZINTS: Fermi energy:  0.689015; 78.000000 electrons
         Band energy:***********;  BLOECHL correction:  0.000000

 total amount of memory used by VASP on root node   160968. kBytes
========================================================================

   base      :      30000. kBytes
   nonl-proj :     109622. kBytes
   fftplans  :       2517. kBytes
   grid      :       9951. kBytes
   one-center:        292. kBytes
   wavefun   :       8586. kBytes
 
  
  
 General timing and accounting informations for this job:
 ========================================================
  
                  Total CPU time used (sec):     1775.310
                            User time (sec):     1736.175
                          System time (sec):       39.135
                         Elapsed time (sec):     1783.585
  
                   Maximum memory used (kb):      769980.
                   Average memory used (kb):           0.
  
                          Minor page faults:      7364218
                          Major page faults:            8
                 Voluntary context switches:         6385
