  18  18   0   0
  0.2649991E+02  0.3319007E-09  0.3319007E-09  0.5000000E-08  0.5000000E-15
  1.000000000000000E-004
  CAR 
 unknown system                          
     16.13835602    -74.61543044  301      4.11347931      1.00000000
    -74.615  0.0000E+00  0.0000E+00
    -74.313  0.0000E+00  0.0000E+00
    -74.010  0.0000E+00  0.0000E+00
    -73.708  0.0000E+00  0.0000E+00
    -73.405  0.0000E+00  0.0000E+00
    -73.103  0.0000E+00  0.0000E+00
    -72.800  0.0000E+00  0.0000E+00
    -72.498  0.0000E+00  0.0000E+00
    -72.195  0.0000E+00  0.0000E+00
    -71.893  0.0000E+00  0.0000E+00
    -71.590  0.0000E+00  0.0000E+00
    -71.288  0.0000E+00  0.0000E+00
    -70.985  0.0000E+00  0.0000E+00
    -70.683  0.0000E+00  0.0000E+00
    -70.380  0.0000E+00  0.1200E+02
    -70.078  0.0000E+00  0.1200E+02
    -69.775  0.0000E+00  0.1200E+02
    -69.473  0.0000E+00  0.1200E+02
    -69.170  0.0000E+00  0.1200E+02
    -68.868  0.0000E+00  0.1200E+02
    -68.565  0.0000E+00  0.1200E+02
    -68.263  0.0000E+00  0.1200E+02
    -67.960  0.0000E+00  0.1200E+02
    -67.658  0.0000E+00  0.1200E+02
    -67.355  0.0000E+00  0.1200E+02
    -67.053  0.0000E+00  0.1200E+02
    -66.750  0.0000E+00  0.1200E+02
    -66.448  0.0000E+00  0.1200E+02
    -66.145  0.0000E+00  0.1200E+02
    -65.843  0.0000E+00  0.1200E+02
    -65.540  0.0000E+00  0.1200E+02
    -65.238  0.0000E+00  0.1200E+02
    -64.935  0.0000E+00  0.1200E+02
    -64.633  0.0000E+00  0.1200E+02
    -64.330  0.0000E+00  0.1200E+02
    -64.027  0.0000E+00  0.1200E+02
    -63.725  0.0000E+00  0.1200E+02
    -63.422  0.0000E+00  0.1200E+02
    -63.120  0.0000E+00  0.1200E+02
    -62.817  0.0000E+00  0.1200E+02
    -62.515  0.0000E+00  0.1200E+02
    -62.212  0.0000E+00  0.1200E+02
    -61.910  0.0000E+00  0.1200E+02
    -61.607  0.0000E+00  0.1200E+02
    -61.305  0.0000E+00  0.1200E+02
    -61.002  0.0000E+00  0.1200E+02
    -60.700  0.0000E+00  0.1200E+02
    -60.397  0.0000E+00  0.1200E+02
    -60.095  0.0000E+00  0.1200E+02
    -59.792  0.0000E+00  0.1200E+02
    -59.490  0.0000E+00  0.1200E+02
    -59.187  0.0000E+00  0.1200E+02
    -58.885  0.0000E+00  0.1200E+02
    -58.582  0.0000E+00  0.1200E+02
    -58.280  0.0000E+00  0.1200E+02
    -57.977  0.0000E+00  0.1200E+02
    -57.675  0.0000E+00  0.1200E+02
    -57.372  0.0000E+00  0.1200E+02
    -57.070  0.0000E+00  0.1200E+02
    -56.767  0.0000E+00  0.1200E+02
    -56.465  0.0000E+00  0.1200E+02
    -56.162  0.0000E+00  0.1200E+02
    -55.860  0.0000E+00  0.1200E+02
    -55.557  0.0000E+00  0.1200E+02
    -55.255  0.0000E+00  0.1200E+02
    -54.952  0.0000E+00  0.1200E+02
    -54.650  0.0000E+00  0.1200E+02
    -54.347  0.0000E+00  0.1200E+02
    -54.045  0.0000E+00  0.1200E+02
    -53.742  0.0000E+00  0.1200E+02
    -53.440  0.0000E+00  0.1200E+02
    -53.137  0.0000E+00  0.1200E+02
    -52.835  0.0000E+00  0.1200E+02
    -52.532  0.0000E+00  0.1200E+02
    -52.229  0.0000E+00  0.1200E+02
    -51.927  0.0000E+00  0.1200E+02
    -51.624  0.0000E+00  0.1200E+02
    -51.322  0.0000E+00  0.1200E+02
    -51.019  0.0000E+00  0.1200E+02
    -50.717  0.0000E+00  0.1200E+02
    -50.414  0.0000E+00  0.1200E+02
    -50.112  0.0000E+00  0.1200E+02
    -49.809  0.0000E+00  0.1200E+02
    -49.507  0.0000E+00  0.1200E+02
    -49.204  0.0000E+00  0.1200E+02
    -48.902  0.0000E+00  0.1200E+02
    -48.599  0.0000E+00  0.1200E+02
    -48.297  0.0000E+00  0.1200E+02
    -47.994  0.0000E+00  0.1200E+02
    -47.692  0.0000E+00  0.1200E+02
    -47.389  0.0000E+00  0.1200E+02
    -47.087  0.0000E+00  0.1200E+02
    -46.784  0.0000E+00  0.1200E+02
    -46.482  0.0000E+00  0.1200E+02
    -46.179  0.0000E+00  0.1200E+02
    -45.877  0.0000E+00  0.1200E+02
    -45.574  0.0000E+00  0.1200E+02
    -45.272  0.0000E+00  0.1200E+02
    -44.969  0.0000E+00  0.1200E+02
    -44.667  0.0000E+00  0.1200E+02
    -44.364  0.0000E+00  0.1200E+02
    -44.062  0.0000E+00  0.1200E+02
    -43.759  0.0000E+00  0.1200E+02
    -43.457  0.0000E+00  0.1200E+02
    -43.154  0.0000E+00  0.1200E+02
    -42.852  0.0000E+00  0.1200E+02
    -42.549  0.0000E+00  0.1200E+02
    -42.247  0.0000E+00  0.1200E+02
    -41.944  0.0000E+00  0.1200E+02
    -41.642  0.0000E+00  0.1200E+02
    -41.339  0.0000E+00  0.1200E+02
    -41.037  0.0000E+00  0.1200E+02
    -40.734  0.0000E+00  0.1200E+02
    -40.432  0.0000E+00  0.1200E+02
    -40.129  0.0000E+00  0.1200E+02
    -39.826  0.0000E+00  0.1200E+02
    -39.524  0.0000E+00  0.1200E+02
    -39.221  0.0000E+00  0.1200E+02
    -38.919  0.0000E+00  0.1200E+02
    -38.616  0.0000E+00  0.1200E+02
    -38.314  0.0000E+00  0.1200E+02
    -38.011  0.0000E+00  0.1200E+02
    -37.709  0.0000E+00  0.1200E+02
    -37.406  0.0000E+00  0.1200E+02
    -37.104  0.0000E+00  0.1200E+02
    -36.801  0.0000E+00  0.1200E+02
    -36.499  0.0000E+00  0.1200E+02
    -36.196  0.0000E+00  0.1200E+02
    -35.894  0.0000E+00  0.1200E+02
    -35.591  0.0000E+00  0.1200E+02
    -35.289  0.0000E+00  0.1200E+02
    -34.986  0.0000E+00  0.1200E+02
    -34.684  0.1960E+03  0.2508E+02
    -34.381  0.0000E+00  0.4800E+02
    -34.079  0.0000E+00  0.4800E+02
    -33.776  0.0000E+00  0.4800E+02
    -33.474  0.0000E+00  0.4800E+02
    -33.171  0.0000E+00  0.4800E+02
    -32.869  0.0000E+00  0.4800E+02
    -32.566  0.0000E+00  0.4800E+02
    -32.264  0.0000E+00  0.4800E+02
    -31.961  0.0000E+00  0.4800E+02
    -31.659  0.0000E+00  0.4800E+02
    -31.356  0.0000E+00  0.4800E+02
    -31.054  0.0000E+00  0.4800E+02
    -30.751  0.0000E+00  0.4800E+02
    -30.449  0.0000E+00  0.4800E+02
    -30.146  0.0000E+00  0.4800E+02
    -29.844  0.0000E+00  0.4800E+02
    -29.541  0.0000E+00  0.4800E+02
    -29.239  0.0000E+00  0.4800E+02
    -28.936  0.0000E+00  0.4800E+02
    -28.634  0.0000E+00  0.4800E+02
    -28.331  0.0000E+00  0.4800E+02
    -28.028  0.0000E+00  0.4800E+02
    -27.726  0.0000E+00  0.4800E+02
    -27.423  0.0000E+00  0.4800E+02
    -27.121  0.0000E+00  0.4800E+02
    -26.818  0.0000E+00  0.4800E+02
    -26.516  0.0000E+00  0.4800E+02
    -26.213  0.0000E+00  0.4800E+02
    -25.911  0.0000E+00  0.4800E+02
    -25.608  0.0000E+00  0.4800E+02
    -25.306  0.0000E+00  0.4800E+02
    -25.003  0.0000E+00  0.4800E+02
    -24.701  0.0000E+00  0.4800E+02
    -24.398  0.0000E+00  0.4800E+02
    -24.096  0.0000E+00  0.4800E+02
    -23.793  0.0000E+00  0.4800E+02
    -23.491  0.0000E+00  0.4800E+02
    -23.188  0.0000E+00  0.4800E+02
    -22.886  0.0000E+00  0.4800E+02
    -22.583  0.0000E+00  0.4800E+02
    -22.281  0.0000E+00  0.4800E+02
    -21.978  0.0000E+00  0.4800E+02
    -21.676  0.0000E+00  0.4800E+02
    -21.373  0.0000E+00  0.4800E+02
    -21.071  0.0000E+00  0.4800E+02
    -20.768  0.0000E+00  0.4800E+02
    -20.466  0.0000E+00  0.4800E+02
    -20.163  0.0000E+00  0.4800E+02
    -19.861  0.0000E+00  0.4800E+02
    -19.558  0.0000E+00  0.4800E+02
    -19.256  0.0000E+00  0.4800E+02
    -18.953  0.0000E+00  0.4800E+02
    -18.651  0.0000E+00  0.4800E+02
    -18.348  0.0000E+00  0.4800E+02
    -18.046  0.0000E+00  0.4800E+02
    -17.743  0.0000E+00  0.4800E+02
    -17.441  0.0000E+00  0.4800E+02
    -17.138  0.0000E+00  0.4800E+02
    -16.836  0.0000E+00  0.4800E+02
    -16.533  0.0000E+00  0.4800E+02
    -16.230  0.0000E+00  0.4800E+02
    -15.928  0.0000E+00  0.4800E+02
    -15.625  0.0000E+00  0.4800E+02
    -15.323  0.0000E+00  0.4800E+02
    -15.020  0.0000E+00  0.4800E+02
    -14.718  0.0000E+00  0.4800E+02
    -14.415  0.0000E+00  0.4800E+02
    -14.113  0.0000E+00  0.4800E+02
    -13.810  0.0000E+00  0.4800E+02
    -13.508  0.0000E+00  0.4800E+02
    -13.205  0.0000E+00  0.4800E+02
    -12.903  0.0000E+00  0.4800E+02
    -12.600  0.0000E+00  0.4800E+02
    -12.298  0.0000E+00  0.4800E+02
    -11.995  0.0000E+00  0.4800E+02
    -11.693  0.0000E+00  0.4800E+02
    -11.390  0.0000E+00  0.4800E+02
    -11.088  0.1613E+01  0.4815E+02
    -10.785  0.3206E+01  0.4901E+02
    -10.483  0.3524E+01  0.5003E+02
    -10.180  0.3941E+01  0.5115E+02
     -9.878  0.7425E+01  0.5277E+02
     -9.575  0.1285E+02  0.5588E+02
     -9.273  0.2055E+02  0.6060E+02
     -8.970  0.2941E+02  0.6801E+02
     -8.668  0.0000E+00  0.7200E+02
     -8.365  0.0000E+00  0.7200E+02
     -8.063  0.0000E+00  0.7200E+02
     -7.760  0.0000E+00  0.7200E+02
     -7.458  0.0000E+00  0.7200E+02
     -7.155  0.0000E+00  0.7200E+02
     -6.853  0.0000E+00  0.7200E+02
     -6.550  0.0000E+00  0.7200E+02
     -6.248  0.0000E+00  0.7200E+02
     -5.945  0.0000E+00  0.7200E+02
     -5.643  0.0000E+00  0.7200E+02
     -5.340  0.0000E+00  0.7200E+02
     -5.038  0.0000E+00  0.7200E+02
     -4.735  0.0000E+00  0.7200E+02
     -4.433  0.0000E+00  0.7200E+02
     -4.130  0.0000E+00  0.7200E+02
     -3.827  0.0000E+00  0.7200E+02
     -3.525  0.0000E+00  0.7200E+02
     -3.222  0.0000E+00  0.7200E+02
     -2.920  0.5518E+00  0.7205E+02
     -2.617  0.4374E+01  0.7269E+02
     -2.315  0.7800E+01  0.7471E+02
     -2.012  0.1201E+02  0.7751E+02
     -1.710  0.1365E+02  0.8170E+02
     -1.407  0.1546E+02  0.8652E+02
     -1.105  0.1115E+02  0.9012E+02
     -0.802  0.7358E+01  0.9293E+02
     -0.500  0.1256E+02  0.9766E+02
     -0.197  0.7854E+01  0.1028E+03
      0.105  0.9815E+01  0.1055E+03
      0.408  0.2092E+02  0.1094E+03
      0.710  0.1472E+02  0.1154E+03
      1.013  0.9514E+01  0.1188E+03
      1.315  0.3351E+02  0.1219E+03
      1.618  0.2003E+02  0.1291E+03
      1.920  0.1331E+02  0.1356E+03
      2.223  0.1611E+02  0.1403E+03
      2.525  0.7537E+01  0.1435E+03
      2.828  0.2603E+02  0.1480E+03
      3.130  0.1036E+02  0.1529E+03
      3.433  0.4816E+01  0.1552E+03
      3.735  0.6495E+00  0.1559E+03
      4.038  0.0000E+00  0.1560E+03
      4.340  0.0000E+00  0.1560E+03
      4.643  0.0000E+00  0.1560E+03
      4.945  0.1262E+01  0.1560E+03
      5.248  0.8228E+01  0.1571E+03
      5.550  0.1218E+02  0.1604E+03
      5.853  0.1881E+02  0.1651E+03
      6.155  0.2734E+02  0.1739E+03
      6.458  0.1882E+02  0.1824E+03
      6.760  0.1465E+02  0.1868E+03
      7.063  0.8985E+01  0.1908E+03
      7.365  0.8941E+01  0.1934E+03
      7.668  0.1416E+02  0.1972E+03
      7.971  0.1392E+02  0.2007E+03
      8.273  0.6842E+01  0.2035E+03
      8.576  0.3548E+01  0.2055E+03
      8.878  0.4609E+01  0.2067E+03
      9.181  0.6091E+01  0.2083E+03
      9.483  0.8133E+01  0.2104E+03
      9.786  0.5637E+01  0.2125E+03
     10.088  0.6397E+01  0.2144E+03
     10.391  0.9604E+01  0.2172E+03
     10.693  0.1302E+02  0.2199E+03
     10.996  0.5832E+01  0.2218E+03
     11.298  0.2948E+01  0.2231E+03
     11.601  0.9579E+00  0.2235E+03
     11.903  0.9447E+00  0.2239E+03
     12.206  0.0000E+00  0.2240E+03
     12.508  0.0000E+00  0.2240E+03
     12.811  0.0000E+00  0.2240E+03
     13.113  0.0000E+00  0.2240E+03
     13.416  0.0000E+00  0.2240E+03
     13.718  0.0000E+00  0.2240E+03
     14.021  0.0000E+00  0.2240E+03
     14.323  0.0000E+00  0.2240E+03
     14.626  0.0000E+00  0.2240E+03
     14.928  0.0000E+00  0.2240E+03
     15.231  0.0000E+00  0.2240E+03
     15.533  0.0000E+00  0.2240E+03
     15.836  0.0000E+00  0.2240E+03
     16.138  0.0000E+00  0.2240E+03
