       N       E                     dE             d eps       ncg     rms          rms(c)
DAV:   1     0.104542662038E+04    0.10454E+04   -0.65844E+04  9912   0.852E+02
DAV:   2    -0.741179779685E+02   -0.11195E+04   -0.10928E+04 11144   0.269E+02
DAV:   3    -0.153119991147E+03   -0.79002E+02   -0.78283E+02 10500   0.715E+01
DAV:   4    -0.155509503475E+03   -0.23895E+01   -0.23866E+01 11984   0.124E+01
DAV:   5    -0.155535727209E+03   -0.26224E-01   -0.26222E-01 10668   0.116E+00    0.188E+02
DAV:   6    -0.143876008162E+03    0.11660E+02   -0.42808E+01  9380   0.171E+01    0.164E+02
DAV:   7    -0.174835414817E+03   -0.30959E+02   -0.13474E+02 10220   0.285E+01    0.159E+02
DAV:   8    -0.140959776238E+03    0.33876E+02   -0.72263E+01  8932   0.214E+01    0.390E+00
DAV:   9    -0.141911507906E+03   -0.95173E+00   -0.10168E+01 11088   0.590E+00    0.106E+01
DAV:  10    -0.141898883999E+03    0.12624E-01   -0.95739E-02 10416   0.745E-01    0.806E+00
DAV:  11    -0.141856835076E+03    0.42049E-01   -0.69998E-02 10864   0.791E-01    0.289E+00
DAV:  12    -0.141851256221E+03    0.55789E-02   -0.21235E-02 10444   0.372E-01    0.386E+00
DAV:  13    -0.141851335841E+03   -0.79621E-04   -0.31961E-03 10108   0.152E-01    0.412E-01
DAV:  14    -0.141850790583E+03    0.54526E-03   -0.47689E-04 10836   0.585E-02    0.370E-01
DAV:  15    -0.141850405278E+03    0.38531E-03   -0.93531E-04  9828   0.646E-02    0.220E-01
DAV:  16    -0.141850403550E+03    0.17275E-05   -0.85482E-05 10808   0.184E-02    0.693E-02
DAV:  17    -0.141850415735E+03   -0.12185E-04   -0.23517E-05 10276   0.110E-02    0.661E-02
DAV:  18    -0.141850446107E+03   -0.30372E-04   -0.10681E-05 10164   0.706E-03    0.103E-02
DAV:  19    -0.141850472863E+03   -0.26756E-04   -0.26988E-06 10444   0.336E-03    0.159E-02
DAV:  20    -0.141850516572E+03   -0.43709E-04   -0.46097E-06 10500   0.350E-03    0.720E-03
DAV:  21    -0.141850532364E+03   -0.15792E-04   -0.62006E-07 11004   0.172E-03    0.452E-03
DAV:  22    -0.141850547682E+03   -0.15318E-04   -0.28513E-07 10528   0.125E-03    0.233E-03
DAV:  23    -0.141850562638E+03   -0.14956E-04   -0.20730E-07 10612   0.104E-03    0.586E-03
DAV:  24    -0.141850566875E+03   -0.42365E-05   -0.59927E-08 10388   0.604E-04    0.160E-03
DAV:  25    -0.141850573607E+03   -0.67316E-05   -0.13534E-07  9436   0.626E-04    0.173E-03
DAV:  26    -0.141850574486E+03   -0.87920E-06   -0.18033E-08  8736   0.251E-04    0.486E-04
DAV:  27    -0.141850574644E+03   -0.15780E-06   -0.28377E-09  7560   0.141E-04    0.167E-04
DAV:  28    -0.141850574671E+03   -0.27441E-07   -0.67641E-10  7336   0.759E-05    0.923E-05
DAV:  29    -0.141850574686E+03   -0.14785E-07   -0.11583E-10  6944   0.352E-05    0.442E-05
DAV:  30    -0.141850574687E+03   -0.10259E-08   -0.49395E-11  7028   0.142E-05
   1 F= -.14709945E+03 E0= -.14709945E+03  d E =0.000000E+00
 Linear response reoptimize wavefunctions
DAV:   1    -0.141850574692E+03    0.52489E+01   -0.61349E-11  6608   0.306E-05
DAV:   2    -0.141850574692E+03    0.43656E-10   -0.69240E-11  7084   0.979E-06
 Linear response G [H, r] |phi>, progress :
  Direction:   1
       N       E                     dE             d eps       ncg     rms
RMM:   1    -0.734517706633E+03   -0.73452E+03    0.27667E+03 19440   0.133E+02
RMM:   2    -0.698524693598E+03    0.35993E+02   -0.22587E+02 16882   0.288E+01
RMM:   3    -0.701585448940E+03   -0.30608E+01   -0.10393E+01 17993   0.577E+00
RMM:   4    -0.701713355522E+03   -0.12791E+00   -0.61418E-01 19055   0.113E+00
RMM:   5    -0.701720824034E+03   -0.74685E-02   -0.14449E-01 19894   0.295E-01
RMM:   6    -0.701723555028E+03   -0.27310E-02   -0.13505E-01 21249   0.760E-02
RMM:   7    -0.701723765144E+03   -0.21012E-03   -0.13463E-01 21641   0.256E-02
RMM:   8    -0.701724903210E+03   -0.11381E-02   -0.14583E-01 22953   0.120E-02
RMM:   9    -0.701725028564E+03   -0.12535E-03   -0.14706E-01 23164   0.889E-03
RMM:  10    -0.701725077038E+03   -0.48473E-04   -0.14755E-01 22804   0.829E-03
RMM:  11    -0.701725125462E+03   -0.48424E-04   -0.14803E-01 22443   0.823E-03
 Linear response G [H, r] |phi>, progress :
  Direction:   2
       N       E                     dE             d eps       ncg     rms
RMM:   1    -0.750931426596E+03   -0.75093E+03    0.24282E+03 19477   0.133E+02
RMM:   2    -0.736169087947E+03    0.14762E+02   -0.23759E+02 16677   0.285E+01
RMM:   3    -0.738653333824E+03   -0.24842E+01   -0.10970E+01 17852   0.562E+00
RMM:   4    -0.738748144495E+03   -0.94811E-01   -0.69089E-01 18925   0.112E+00
RMM:   5    -0.738755695452E+03   -0.75510E-02   -0.21455E-01 19829   0.277E-01
RMM:   6    -0.738752632798E+03    0.30627E-02   -0.15134E-01 21084   0.748E-02
RMM:   7    -0.738750221436E+03    0.24114E-02   -0.12496E-01 21577   0.251E-02
RMM:   8    -0.738747534157E+03    0.26873E-02   -0.97915E-02 22900   0.122E-02
RMM:   9    -0.738748833138E+03   -0.12990E-02   -0.11089E-01 23074   0.907E-03
RMM:  10    -0.738748437818E+03    0.39532E-03   -0.10694E-01 22790   0.849E-03
RMM:  11    -0.738748759551E+03   -0.32173E-03   -0.11015E-01 22375   0.843E-03
 Linear response G [H, r] |phi>, progress :
  Direction:   3
       N       E                     dE             d eps       ncg     rms
RMM:   1    -0.768728635678E+03   -0.76873E+03    0.28327E+03 19109   0.136E+02
RMM:   2    -0.720021823790E+03    0.48707E+02   -0.27487E+02 16284   0.295E+01
RMM:   3    -0.722665969546E+03   -0.26441E+01   -0.16482E+01 17588   0.656E+00
RMM:   4    -0.722857457667E+03   -0.19149E+00   -0.84331E-01 18709   0.131E+00
RMM:   5    -0.722862837789E+03   -0.53801E-02   -0.50142E-02 18954   0.316E-01
RMM:   6    -0.722863486220E+03   -0.64843E-03   -0.33843E-03 20563   0.799E-02
RMM:   7    -0.722863526403E+03   -0.40183E-04   -0.33178E-04 21122   0.239E-02
RMM:   8    -0.722863527414E+03   -0.10112E-05   -0.64334E-05 22534   0.934E-03
RMM:   9    -0.722863527991E+03   -0.57640E-06   -0.48931E-05 22631   0.594E-03
RMM:  10    -0.722863528046E+03   -0.55353E-07   -0.48111E-05 22226   0.540E-03
RMM:  11    -0.722863528221E+03   -0.17457E-06   -0.49823E-05 21927   0.536E-03
RMM:  12    -0.722863528448E+03   -0.22686E-06   -0.52084E-05 21684   0.536E-03
 Linear response to external field (no local field effect), progress :
  Direction:   1
       N       E                     dE             d eps       ncg     rms          rms(c)
RMM:   1    -0.127275589217E+02   -0.12728E+02   -0.80883E+01 21756   0.575E+00
RMM:   2    -0.157121665201E+02   -0.29846E+01   -0.72648E-01 15544   0.121E+00
RMM:   3    -0.157358989317E+02   -0.23732E-01   -0.81619E-02 16643   0.274E-01
RMM:   4    -0.157368732248E+02   -0.97429E-03   -0.34481E-03 17530   0.567E-02
RMM:   5    -0.157369102653E+02   -0.37041E-04   -0.16882E-04 17319   0.127E-02
RMM:   6    -0.157369115198E+02   -0.12544E-05   -0.85612E-06 16358   0.300E-03
RMM:   7    -0.157369115591E+02   -0.39374E-07   -0.61972E-07 16242   0.833E-04
RMM:   8    -0.157369115640E+02   -0.48579E-08   -0.12268E-07 15789   0.259E-04
RMM:   9    -0.157369115637E+02    0.27332E-09   -0.84229E-08 14253   0.127E-04
 Linear response to external field (no local field effect), progress :
  Direction:   2
       N       E                     dE             d eps       ncg     rms          rms(c)
RMM:   1    -0.129835796064E+02   -0.12984E+02   -0.80675E+01 21287   0.587E+00
RMM:   2    -0.151272713563E+02   -0.21437E+01   -0.69639E-01 15470   0.127E+00
RMM:   3    -0.151503310584E+02   -0.23060E-01   -0.66422E-02 16626   0.280E-01
RMM:   4    -0.151511925886E+02   -0.86153E-03   -0.33959E-03 17486   0.581E-02
RMM:   5    -0.151512234023E+02   -0.30814E-04   -0.15790E-04 17171   0.134E-02
RMM:   6    -0.151512249349E+02   -0.15327E-05   -0.80931E-06 16292   0.300E-03
RMM:   7    -0.151512249863E+02   -0.51372E-07   -0.55057E-07 16146   0.831E-04
RMM:   8    -0.151512249898E+02   -0.35116E-08   -0.82726E-08 16056   0.235E-04
 Linear response to external field (no local field effect), progress :
  Direction:   3
       N       E                     dE             d eps       ncg     rms          rms(c)
RMM:   1    -0.868388458286E+01   -0.86839E+01   -0.44486E+01 21257   0.536E+00
RMM:   2    -0.963770454357E+01   -0.95382E+00   -0.38833E-01 14403   0.104E+00
RMM:   3    -0.964754027136E+01   -0.98357E-02   -0.34085E-02 16187   0.228E-01
RMM:   4    -0.964798496958E+01   -0.44470E-03   -0.13810E-03 16972   0.445E-02
RMM:   5    -0.964800593992E+01   -0.20970E-04   -0.76667E-05 16523   0.104E-02
RMM:   6    -0.964800687845E+01   -0.93853E-06   -0.40519E-06 15776   0.235E-03
RMM:   7    -0.964800690993E+01   -0.31476E-07   -0.34688E-07 15420   0.671E-04
RMM:   8    -0.964800691430E+01   -0.43691E-08   -0.96480E-08 14926   0.204E-04
 Linear response to external field, progress :
  Direction:   1
       N       E                     dE             d eps       ncg     rms          rms(c)
RMM:   1    -0.128709993670E+02   -0.12871E+02   -0.80933E+01 52396   0.577E+00
RMM:   2    -0.154203575122E+02   -0.25494E+01   -0.70215E-01 37790   0.122E+00    0.676E+00
RMM:   3    -0.150083822899E+02    0.41198E+00   -0.45278E-01 37150   0.165E+00    0.381E+00
RMM:   4    -0.153093253315E+02   -0.30094E+00   -0.36680E-01 35951   0.163E+00    0.955E-01
RMM:   5    -0.154203773348E+02   -0.11105E+00   -0.10233E-02 37449   0.294E-01    0.101E-01
RMM:   6    -0.154306393107E+02   -0.10262E-01   -0.35789E-03 40053   0.545E-02    0.569E-02
RMM:   7    -0.154353929129E+02   -0.47536E-02    0.30479E-03 38343   0.259E-02    0.154E-02
RMM:   8    -0.154379637657E+02   -0.25709E-02   -0.26418E-03 39114   0.657E-03    0.611E-03
RMM:   9    -0.154385581395E+02   -0.59437E-03    0.25612E-04 38132   0.410E-03    0.231E-03
RMM:  10    -0.154386556391E+02   -0.97500E-04    0.16767E-04 37623   0.131E-03    0.978E-04
RMM:  11    -0.154387767395E+02   -0.12110E-03   -0.74900E-05 37271   0.628E-04    0.253E-04
RMM:  12    -0.154387782291E+02   -0.14896E-05    0.62681E-06 38647   0.188E-04    0.789E-05
RMM:  13    -0.154387794092E+02   -0.11801E-05   -0.97937E-08 32648   0.924E-05    0.441E-05
RMM:  14    -0.154387787366E+02    0.67263E-06   -0.48172E-06 28148   0.875E-05    0.199E-05
RMM:  15    -0.154387778041E+02    0.93249E-06    0.48397E-07 20661   0.746E-05    0.584E-06
 Linear response to external field, progress :
  Direction:   2
       N       E                     dE             d eps       ncg     rms          rms(c)
RMM:   1    -0.128804723962E+02   -0.12880E+02   -0.81028E+01 52520   0.577E+00
RMM:   2    -0.154202337986E+02   -0.25398E+01   -0.70712E-01 37895   0.123E+00    0.676E+00
RMM:   3    -0.150093909876E+02    0.41084E+00   -0.44723E-01 37224   0.165E+00    0.382E+00
RMM:   4    -0.153124774507E+02   -0.30309E+00   -0.39295E-01 36043   0.163E+00    0.954E-01
RMM:   5    -0.154173165835E+02   -0.10484E+00    0.10696E-03 37709   0.291E-01    0.115E-01
RMM:   6    -0.154317535994E+02   -0.14437E-01   -0.19834E-02 40058   0.565E-02    0.715E-02
RMM:   7    -0.154324638324E+02   -0.71023E-03    0.74264E-03 40085   0.182E-02    0.317E-02
RMM:   8    -0.154375819642E+02   -0.51181E-02   -0.13092E-03 36680   0.142E-02    0.635E-03
RMM:   9    -0.154386625580E+02   -0.10806E-02   -0.79249E-04 37514   0.499E-03    0.247E-03
RMM:  10    -0.154386348923E+02    0.27666E-04    0.18121E-04 38935   0.118E-03    0.119E-03
RMM:  11    -0.154387363090E+02   -0.10142E-03   -0.40629E-05 37486   0.611E-04    0.579E-04
RMM:  12    -0.154387672592E+02   -0.30950E-04    0.52341E-05 37135   0.308E-04    0.133E-04
RMM:  13    -0.154387698270E+02   -0.25678E-05    0.31722E-05 37702   0.116E-04    0.455E-05
RMM:  14    -0.154387717982E+02   -0.19713E-05   -0.33274E-07 28119   0.832E-05    0.208E-05
RMM:  15    -0.154387712355E+02    0.56267E-06   -0.61461E-07 23043   0.773E-05    0.604E-06
 Linear response to external field, progress :
  Direction:   3
       N       E                     dE             d eps       ncg     rms          rms(c)
RMM:   1    -0.868388458286E+01   -0.86839E+01   -0.44486E+01 21257   0.536E+00
RMM:   2    -0.963770454357E+01   -0.95382E+00   -0.38833E-01 14403   0.104E+00    0.636E+00
RMM:   3    -0.466254803013E+01    0.49752E+01   -0.11915E+01 13850   0.347E+00    0.175E+00
RMM:   4    -0.419139102359E+01    0.47116E+00   -0.60892E+00 14783   0.867E-01    0.106E+00
RMM:   5    -0.394138785105E+01    0.25000E+00   -0.71580E+00 14568   0.543E-01    0.745E-01
RMM:   6    -0.376744155675E+01    0.17395E+00   -0.79113E+00 14325   0.454E-01    0.453E-01
RMM:   7    -0.360674345145E+01    0.16070E+00   -0.75634E+00 14738   0.261E-01    0.325E-01
RMM:   8    -0.343664937187E+01    0.17009E+00   -0.64218E+00 14644   0.227E-01    0.122E-01
RMM:   9    -0.319583014776E+01    0.24082E+00   -0.41017E+00 14945   0.123E-01    0.101E-01
RMM:  10    -0.302163230671E+01    0.17420E+00   -0.24012E+00 14286   0.531E-02    0.657E-02
RMM:  11    -0.291288604259E+01    0.10875E+00   -0.13186E+00 13947   0.306E-02    0.364E-02
RMM:  12    -0.284951229157E+01    0.63374E-01   -0.66987E-01 12591   0.311E-02    0.196E-02
RMM:  13    -0.281761306754E+01    0.31899E-01   -0.34002E-01 13167   0.161E-02    0.141E-02
RMM:  14    -0.280141413222E+01    0.16199E-01   -0.16642E-01 12715   0.134E-02    0.935E-03
RMM:  15    -0.279430692765E+01    0.71072E-02   -0.89303E-02 13045   0.894E-03    0.248E-03
RMM:  16    -0.278969470599E+01    0.46122E-02   -0.42187E-02 13485   0.468E-03    0.157E-03
RMM:  17    -0.278752527481E+01    0.21694E-02   -0.20091E-02 13318   0.323E-03    0.588E-04
RMM:  18    -0.278648568701E+01    0.10396E-02   -0.95686E-03 13808   0.100E-03    0.361E-04
RMM:  19    -0.278595086718E+01    0.53482E-03   -0.42686E-03 14321   0.379E-04    0.230E-04
RMM:  20    -0.278568017289E+01    0.27069E-03   -0.16242E-03 12763   0.434E-04    0.536E-05
RMM:  21    -0.278553058277E+01    0.14959E-03   -0.14257E-04 11214   0.749E-05    0.236E-05
RMM:  22    -0.278545986926E+01    0.70714E-04    0.55684E-04 11542   0.798E-05    0.541E-06
