 vasp.5.4.1 24Jun15 (build Apr 13 2016 13:07:19) complex                        
  
 executed on           IFC91_ompi date 2019.09.14  00:26:40
 running on   28 total cores
 distrk:  each k-point on   28 cores,    1 groups
 distr:  one band on NCORES_PER_BAND=   1 cores,   28 groups


--------------------------------------------------------------------------------------------------------


 INCAR:
 POTCAR:    PAW_PBE W_sv_GW 23Mar2010             
 POTCAR:    PAW_PBE Se_GW 20Mar2012               

 ----------------------------------------------------------------------------- 
|                                                                             |
|           W    W    AA    RRRRR   N    N  II  N    N   GGGG   !!!           |
|           W    W   A  A   R    R  NN   N  II  NN   N  G    G  !!!           |
|           W    W  A    A  R    R  N N  N  II  N N  N  G       !!!           |
|           W WW W  AAAAAA  RRRRR   N  N N  II  N  N N  G  GGG   !            |
|           WW  WW  A    A  R   R   N   NN  II  N   NN  G    G                |
|           W    W  A    A  R    R  N    N  II  N    N   GGGG   !!!           |
|                                                                             |
|      For optimal performance we recommend to set                            |
|        NCORE= 4 - approx SQRT( number of cores)                             |
|      NCORE specifies how many cores store one orbital (NPAR=cpu/NCORE).     |
|      This setting can  greatly improve the performance of VASP for DFT.     |
|      The default, NPAR=number of cores might be grossly inefficient         |
|      on modern multi-core architectures or massively parallel machines.     |
|      Do your own testing !!!!                                               |
|      Unfortunately you need to use the default for GW and RPA calculations. |
|      (for HF NCORE is supported but not extensively tested yet)             |
|                                                                             |
 ----------------------------------------------------------------------------- 

 POTCAR:    PAW_PBE W_sv_GW 23Mar2010             
   VRHFIN =W: 5p6s5d                                                            
   LEXCH  = PE                                                                  
   EATOM  =  1863.8917 eV,  136.9922 Ry                                         
                                                                                
   TITEL  = PAW_PBE W_sv_GW 23Mar2010                                           
   LULTRA =        F    use ultrasoft PP ?                                      
   IUNSCR =        1    unscreen: 0-lin 1-nonlin 2-no                           
   RPACOR =    1.500    partial core radius                                     
   POMASS =  183.850; ZVAL   =   14.000    mass and valenz                      
   RCORE  =    2.300    outmost cutoff radius                                   
   RWIGS  =    2.600; RWIGS  =    1.376    wigner-seitz radius (au A)           
   ENMAX  =  317.132; ENMIN  =  237.849 eV                                      
   RCLOC  =    1.609    cutoff for local pot                                    
   LCOR   =        T    correct aug charges                                     
   LPAW   =        T    paw PP                                                  
   EAUG   =  807.757                                                            
   DEXC   =    0.000                                                            
   RMAX   =    2.349    core radius for proj-oper                               
   RAUG   =    1.300    factor for augmentation sphere                          
   RDEP   =    2.382    radius for radial grids                                 
   RDEPT  =    1.832    core radius for aug-charge                              
                                                                                
   Atomic configuration                                                         
   14 entries                                                                   
     n  l   j            E        occ.                                          
     1  0  0.50    -69464.1497   2.0000                                         
     2  0  0.50    -11984.7400   2.0000                                         
     2  1  1.50    -10478.3405   6.0000                                         
     3  0  0.50     -2757.5605   2.0000                                         
     3  1  1.50     -2311.6706   6.0000                                         
     3  2  2.50     -1799.5973  10.0000                                         
     4  0  0.50      -566.1609   2.0000                                         
     4  1  1.50      -419.9482   6.0000                                         
     4  2  2.50      -234.8191  10.0000                                         
     4  3  3.50       -29.7363  14.0000                                         
     5  0  0.50       -75.5905   2.0000                                         
     5  1  1.50       -39.9756   6.0000                                         
     5  2  2.50        -2.4479   6.0000                                         
     5  3  2.50        -1.3606   0.0000                                         
   Description                                                                  
     l       E           TYP  RCUT    TYP  RCUT                                 
     0    -75.5905419     23  1.500                                             
     0    -76.9511245     23  1.500                                             
     0    108.8466080     23  1.500                                             
     1    -39.9756040     23  1.800                                             
     1     68.0291300     23  1.800                                             
     2     -2.4478587     23  2.150                                             
     2     -0.0030619     23  2.150                                             
     3      4.0817478     23  2.300                                             
  local pseudopotential read in
  partial core-charges read in
  partial kinetic energy density read in
  kinetic energy density of atom read in
  atomic valenz-charges read in
  non local Contribution for L=           0  read in
    real space projection operators read in
  non local Contribution for L=           0  read in
    real space projection operators read in
  non local Contribution for L=           0  read in
    real space projection operators read in
  non local Contribution for L=           1  read in
    real space projection operators read in
  non local Contribution for L=           1  read in
    real space projection operators read in
  non local Contribution for L=           2  read in
    real space projection operators read in
  non local Contribution for L=           2  read in
    real space projection operators read in
  non local Contribution for L=           3  read in
    real space projection operators read in
    PAW grid and wavefunctions read in
 
   number of l-projection  operators is LMAX  =           8
   number of lm-projection operators is LMMAX =          26
 
 POTCAR:    PAW_PBE Se_GW 20Mar2012               
   VRHFIN =Se: s2p4                                                             
   LEXCH  = PE                                                                  
   EATOM  =   257.1286 eV,   18.8984 Ry                                         
                                                                                
   TITEL  = PAW_PBE Se_GW 20Mar2012                                             
   LULTRA =        F    use ultrasoft PP ?                                      
   IUNSCR =        1    unscreen: 0-lin 1-nonlin 2-no                           
   RPACOR =    1.900    partial core radius                                     
   POMASS =   78.960; ZVAL   =    6.000    mass and valenz                      
   RCORE  =    2.100    outmost cutoff radius                                   
   RWIGS  =    2.200; RWIGS  =    1.164    wigner-seitz radius (au A)           
   ENMAX  =  211.555; ENMIN  =  158.666 eV                                      
   ICORE  =        3    local potential                                         
   LCOR   =        T    correct aug charges                                     
   LPAW   =        T    paw PP                                                  
   EAUG   =  446.842                                                            
   DEXC   =    0.000                                                            
   RMAX   =    2.147    core radius for proj-oper                               
   RAUG   =    1.300    factor for augmentation sphere                          
   RDEP   =    2.177    radius for radial grids                                 
   RDEPT  =    1.928    core radius for aug-charge                              
                                                                                
   Atomic configuration                                                         
   10 entries                                                                   
     n  l   j            E        occ.                                          
     1  0  0.50    -12503.4788   2.0000                                         
     2  0  0.50     -1606.9547   2.0000                                         
     2  1  1.50     -1413.3140   6.0000                                         
     3  0  0.50      -213.4885   2.0000                                         
     3  1  1.50      -152.9538   6.0000                                         
     3  2  2.50       -53.1221  10.0000                                         
     4  0  0.50       -17.2865   2.0000                                         
     4  1  0.50        -6.5110   4.0000                                         
     4  2  2.50        -6.8029   0.0000                                         
     4  3  2.50        -6.8029   0.0000                                         
   Description                                                                  
     l       E           TYP  RCUT    TYP  RCUT                                 
     0    -17.2865391     23  2.100                                             
     0     68.0291300     23  2.100                                             
     1     -6.5110285     23  2.100                                             
     1     81.6349560     23  2.100                                             
     2     -6.8029130     23  2.100                                             
     3     -1.3605826      7  2.100                                             
  local pseudopotential read in
  partial core-charges read in
  partial kinetic energy density read in
  kinetic energy density of atom read in
  atomic valenz-charges read in
  non local Contribution for L=           0  read in
    real space projection operators read in
  non local Contribution for L=           0  read in
    real space projection operators read in
  non local Contribution for L=           1  read in
    real space projection operators read in
  non local Contribution for L=           1  read in
    real space projection operators read in
  non local Contribution for L=           2  read in
    real space projection operators read in
    PAW grid and wavefunctions read in
 
   number of l-projection  operators is LMAX  =           5
   number of lm-projection operators is LMMAX =          13
 

 ----------------------------------------------------------------------------- 
|                                                                             |
|  ADVICE TO THIS USER RUNNING 'VASP/VAMP'   (HEAR YOUR MASTER'S VOICE ...):  |
|                                                                             |
|      You have a (more or less) 'large supercell' and for larger cells       |
|      it might be more efficient to use real space projection opertators     |
|      So try LREAL= Auto  in the INCAR   file.                               |
|      Mind: At the moment your POTCAR file does not contain real space       |
|       projectors, and has to be modified,  BUT if you                       |
|      want to do an extremely  accurate calculation you might also keep the  |
|      reciprocal projection scheme          (i.e. LREAL=.FALSE.)             |
|                                                                             |
 ----------------------------------------------------------------------------- 

  PAW_PBE W_sv_GW 23Mar2010             :
 energy of atom  1       EATOM=-1863.8917
 kinetic energy error for atom=    0.2291 (will be added to EATOM!!)
  PAW_PBE Se_GW 20Mar2012               :
 energy of atom  2       EATOM= -257.1286
 kinetic energy error for atom=    0.0039 (will be added to EATOM!!)
 
 
 POSCAR:  W Se                                   
  positions in cartesian coordinates
  No initial velocities read in
 exchange correlation table for  LEXCH =        8
   RHO(1)=    0.500       N(1)  =     2000
   RHO(2)=  100.500       N(2)  =     4000
 


--------------------------------------------------------------------------------------------------------


 ion  position               nearest neighbor table
   1  0.167  0.333  0.175-   7 2.55   8 2.55   7 2.55   8 2.55   7 2.55   8 2.55
   2  0.833  0.667  0.305-   9 2.55  10 2.55   9 2.55  10 2.55   9 2.55  10 2.55
   3  0.167  0.333  0.435-  11 2.55  12 2.55  11 2.55  12 2.55  11 2.55  12 2.55
   4  0.833  0.667  0.565-  13 2.55  14 2.55  13 2.55  14 2.55  13 2.55  14 2.55
   5  0.167  0.333  0.695-  15 2.55  16 2.55  15 2.55  16 2.55  15 2.55  16 2.55
   6  0.833  0.667  0.825-  17 2.55  18 2.55  17 2.55  18 2.55  17 2.55  18 2.55
   7  0.833  0.667  0.209-   1 2.55   1 2.55   1 2.55
   8  0.833  0.667  0.142-   1 2.55   1 2.55   1 2.55
   9  0.167  0.333  0.339-   2 2.55   2 2.55   2 2.55
  10  0.167  0.333  0.272-   2 2.55   2 2.55   2 2.55
  11  0.833  0.667  0.469-   3 2.55   3 2.55   3 2.55
  12  0.833  0.667  0.402-   3 2.55   3 2.55   3 2.55
  13  0.167  0.333  0.598-   4 2.55   4 2.55   4 2.55
  14  0.167  0.333  0.531-   4 2.55   4 2.55   4 2.55
  15  0.833  0.667  0.728-   5 2.55   5 2.55   5 2.55
  16  0.833  0.667  0.661-   5 2.55   5 2.55   5 2.55
  17  0.167  0.333  0.858-   6 2.55   6 2.55   6 2.55
  18  0.167  0.333  0.791-   6 2.55   6 2.55   6 2.55
 
  LATTYP: Found a hexagonal cell.
 ALAT       =     3.3190066245
 C/A-ratio  =    15.0647484797
  
  Lattice vectors:
  
 A1 = (   3.3190066245,   0.0000000000,   0.0000000000)
 A2 = (  -1.6595033122,   2.8743440521,   0.0000000000)
 A3 = (   0.0000000000,   0.0000000000,  50.0000000000)


Analysis of symmetry for initial positions (statically):
=====================================================================
 Subroutine PRICEL returns:
 Original cell was already a primitive cell.
 

 Routine SETGRP: Setting up the symmetry group for a 
 hexagonal supercell.


 Subroutine GETGRP returns: Found 12 space group operations
 (whereof  4 operations were pure point group operations)
 out of a pool of 24 trial point group operations.


The static configuration has the point symmetry C_2h.
 The point group associated with its full space group is D_3d.


Analysis of symmetry for dynamics (positions and initial velocities):
=====================================================================
 Subroutine PRICEL returns:
 Original cell was already a primitive cell.
 

 Routine SETGRP: Setting up the symmetry group for a 
 hexagonal supercell.


 Subroutine GETGRP returns: Found 12 space group operations
 (whereof  4 operations were pure point group operations)
 out of a pool of 24 trial point group operations.


The dynamic configuration has the point symmetry C_2h.
 The point group associated with its full space group is D_3d.


 Subroutine INISYM returns: Found 12 space group operations
 (whereof  4 operations are pure point group operations),
 and found     1 'primitive' translations

 
 
 KPOINTS: KPOINTS created by Atomic Simulation Env

Automatic generation of k-mesh.
Space group operators:
 irot       det(A)        alpha          n_x          n_y          n_z        tau_x        tau_y        tau_z
    1     1.000000     0.000000     1.000000     0.000000     0.000000     0.000000     0.000000     0.000000
    2    -1.000000     0.000000     1.000000     0.000000     0.000000     0.000000     0.000000     0.000000
    3     1.000000   180.000000     1.000000     0.000000     0.000000     0.000000     0.000000     0.000000
    4    -1.000000   180.000000     1.000000     0.000000     0.000000     0.000000     0.000000     0.000000
    5     1.000000   120.000000     0.000000     0.000000    -1.000000     0.500000     0.500000     0.000000
    6    -1.000000   120.000000     0.000000     0.000000    -1.000000     0.500000     0.500000     0.000000
    7     1.000000   120.000000     0.000000     0.000000     1.000000     0.000000     0.500000     0.000000
    8    -1.000000   120.000000     0.000000     0.000000     1.000000     0.000000     0.500000     0.000000
    9     1.000000   180.000000     0.500000    -0.866025     0.000000    -0.000000     0.500000     0.000000
   10    -1.000000   180.000000     0.500000    -0.866025     0.000000    -0.000000     0.500000     0.000000
   11     1.000000   180.000000    -0.500000    -0.866025     0.000000     0.500000     0.500000     0.000000
   12    -1.000000   180.000000    -0.500000    -0.866025     0.000000     0.500000     0.500000     0.000000
 
 Subroutine IBZKPT returns following result:
 ===========================================
 
 Found     37 irreducible k-points:
 
 Following reciprocal coordinates:
            Coordinates               Weight
  0.000000  0.000000  0.000000      1.000000
  0.055556  0.000000  0.000000      6.000000
  0.111111  0.000000  0.000000      6.000000
  0.166667  0.000000  0.000000      6.000000
  0.222222  0.000000  0.000000      6.000000
  0.277778  0.000000  0.000000      6.000000
  0.333333  0.000000  0.000000      6.000000
  0.388889  0.000000  0.000000      6.000000
  0.444444  0.000000  0.000000      6.000000
  0.500000  0.000000  0.000000      3.000000
  0.055556  0.055556  0.000000      6.000000
  0.111111  0.055556  0.000000     12.000000
  0.166667  0.055556  0.000000     12.000000
  0.222222  0.055556  0.000000     12.000000
  0.277778  0.055556  0.000000     12.000000
  0.333333  0.055556  0.000000     12.000000
  0.388889  0.055556  0.000000     12.000000
  0.444444  0.055556  0.000000     12.000000
  0.111111  0.111111  0.000000      6.000000
  0.166667  0.111111  0.000000     12.000000
  0.222222  0.111111  0.000000     12.000000
  0.277778  0.111111  0.000000     12.000000
  0.333333  0.111111  0.000000     12.000000
  0.388889  0.111111  0.000000     12.000000
  0.444444  0.111111  0.000000      6.000000
  0.166667  0.166667  0.000000      6.000000
  0.222222  0.166667  0.000000     12.000000
  0.277778  0.166667  0.000000     12.000000
  0.333333  0.166667  0.000000     12.000000
  0.388889  0.166667  0.000000     12.000000
  0.222222  0.222222  0.000000      6.000000
  0.277778  0.222222  0.000000     12.000000
  0.333333  0.222222  0.000000     12.000000
  0.388889  0.222222  0.000000      6.000000
  0.277778  0.277778  0.000000      6.000000
  0.333333  0.277778  0.000000     12.000000
  0.333333  0.333333  0.000000      2.000000
 
 Following cartesian coordinates:
            Coordinates               Weight
  0.000000  0.000000  0.000000      1.000000
  0.016739  0.009664  0.000000      6.000000
  0.033477  0.019328  0.000000      6.000000
  0.050216  0.028992  0.000000      6.000000
  0.066954  0.038656  0.000000      6.000000
  0.083693  0.048320  0.000000      6.000000
  0.100432  0.057984  0.000000      6.000000
  0.117170  0.067648  0.000000      6.000000
  0.133909  0.077312  0.000000      6.000000
  0.150647  0.086976  0.000000      3.000000
  0.016739  0.028992  0.000000      6.000000
  0.033477  0.038656  0.000000     12.000000
  0.050216  0.048320  0.000000     12.000000
  0.066954  0.057984  0.000000     12.000000
  0.083693  0.067648  0.000000     12.000000
  0.100432  0.077312  0.000000     12.000000
  0.117170  0.086976  0.000000     12.000000
  0.133909  0.096640  0.000000     12.000000
  0.033477  0.057984  0.000000      6.000000
  0.050216  0.067648  0.000000     12.000000
  0.066954  0.077312  0.000000     12.000000
  0.083693  0.086976  0.000000     12.000000
  0.100432  0.096640  0.000000     12.000000
  0.117170  0.106304  0.000000     12.000000
  0.133909  0.115968  0.000000      6.000000
  0.050216  0.086976  0.000000      6.000000
  0.066954  0.096640  0.000000     12.000000
  0.083693  0.106304  0.000000     12.000000
  0.100432  0.115968  0.000000     12.000000
  0.117170  0.125633  0.000000     12.000000
  0.066954  0.115968  0.000000      6.000000
  0.083693  0.125633  0.000000     12.000000
  0.100432  0.135297  0.000000     12.000000
  0.117170  0.144961  0.000000      6.000000
  0.083693  0.144961  0.000000      6.000000
  0.100432  0.154625  0.000000     12.000000
  0.100432  0.173953  0.000000      2.000000
 
 TETIRR: Found    169 inequivalent tetrahedra from     1944
 
 Subroutine IBZKPT_HF returns following result:
 ==============================================
 
 Found    324 k-points in 1st BZ
 the following    324 k-points will be used (e.g. in the exchange kernel)
 Following reciprocal coordinates:   # in IRBZ
  0.000000  0.000000  0.000000    0.00308642   1 t-inv F
  0.055556  0.000000  0.000000    0.00308642   2 t-inv F
  0.111111  0.000000  0.000000    0.00308642   3 t-inv F
  0.166667  0.000000  0.000000    0.00308642   4 t-inv F
  0.222222  0.000000  0.000000    0.00308642   5 t-inv F
  0.277778  0.000000  0.000000    0.00308642   6 t-inv F
  0.333333  0.000000  0.000000    0.00308642   7 t-inv F
  0.388889  0.000000  0.000000    0.00308642   8 t-inv F
  0.444444  0.000000  0.000000    0.00308642   9 t-inv F
  0.500000  0.000000  0.000000    0.00308642  10 t-inv F
  0.055556  0.055556  0.000000    0.00308642  11 t-inv F
  0.111111  0.055556  0.000000    0.00308642  12 t-inv F
  0.166667  0.055556  0.000000    0.00308642  13 t-inv F
  0.222222  0.055556  0.000000    0.00308642  14 t-inv F
  0.277778  0.055556  0.000000    0.00308642  15 t-inv F
  0.333333  0.055556  0.000000    0.00308642  16 t-inv F
  0.388889  0.055556  0.000000    0.00308642  17 t-inv F
  0.444444  0.055556  0.000000    0.00308642  18 t-inv F
  0.111111  0.111111  0.000000    0.00308642  19 t-inv F
  0.166667  0.111111  0.000000    0.00308642  20 t-inv F
  0.222222  0.111111  0.000000    0.00308642  21 t-inv F
  0.277778  0.111111  0.000000    0.00308642  22 t-inv F
  0.333333  0.111111  0.000000    0.00308642  23 t-inv F
  0.388889  0.111111  0.000000    0.00308642  24 t-inv F
  0.444444  0.111111  0.000000    0.00308642  25 t-inv F
  0.166667  0.166667  0.000000    0.00308642  26 t-inv F
  0.222222  0.166667  0.000000    0.00308642  27 t-inv F
  0.277778  0.166667  0.000000    0.00308642  28 t-inv F
  0.333333  0.166667  0.000000    0.00308642  29 t-inv F
  0.388889  0.166667  0.000000    0.00308642  30 t-inv F
  0.222222  0.222222  0.000000    0.00308642  31 t-inv F
  0.277778  0.222222  0.000000    0.00308642  32 t-inv F
  0.333333  0.222222  0.000000    0.00308642  33 t-inv F
  0.388889  0.222222  0.000000    0.00308642  34 t-inv F
  0.277778  0.277778  0.000000    0.00308642  35 t-inv F
  0.333333  0.277778  0.000000    0.00308642  36 t-inv F
  0.333333  0.333333  0.000000    0.00308642  37 t-inv F
 -0.055556 -0.000000 -0.000000    0.00308642   2 t-inv F
  0.055556 -0.055556 -0.000000    0.00308642   2 t-inv F
 -0.055556  0.055556  0.000000    0.00308642   2 t-inv F
  0.000000 -0.055556  0.000000    0.00308642   2 t-inv F
 -0.000000  0.055556 -0.000000    0.00308642   2 t-inv F
 -0.111111 -0.000000 -0.000000    0.00308642   3 t-inv F
  0.111111 -0.111111 -0.000000    0.00308642   3 t-inv F
 -0.111111  0.111111  0.000000    0.00308642   3 t-inv F
  0.000000 -0.111111  0.000000    0.00308642   3 t-inv F
 -0.000000  0.111111 -0.000000    0.00308642   3 t-inv F
 -0.166667 -0.000000 -0.000000    0.00308642   4 t-inv F
  0.166667 -0.166667 -0.000000    0.00308642   4 t-inv F
 -0.166667  0.166667  0.000000    0.00308642   4 t-inv F
  0.000000 -0.166667  0.000000    0.00308642   4 t-inv F
 -0.000000  0.166667 -0.000000    0.00308642   4 t-inv F
 -0.222222 -0.000000 -0.000000    0.00308642   5 t-inv F
  0.222222 -0.222222 -0.000000    0.00308642   5 t-inv F
 -0.222222  0.222222  0.000000    0.00308642   5 t-inv F
  0.000000 -0.222222  0.000000    0.00308642   5 t-inv F
 -0.000000  0.222222 -0.000000    0.00308642   5 t-inv F
 -0.277778 -0.000000 -0.000000    0.00308642   6 t-inv F
  0.277778 -0.277778 -0.000000    0.00308642   6 t-inv F
 -0.277778  0.277778  0.000000    0.00308642   6 t-inv F
  0.000000 -0.277778  0.000000    0.00308642   6 t-inv F
 -0.000000  0.277778 -0.000000    0.00308642   6 t-inv F
 -0.333333 -0.000000 -0.000000    0.00308642   7 t-inv F
  0.333333 -0.333333 -0.000000    0.00308642   7 t-inv F
 -0.333333  0.333333  0.000000    0.00308642   7 t-inv F
  0.000000 -0.333333  0.000000    0.00308642   7 t-inv F
 -0.000000  0.333333 -0.000000    0.00308642   7 t-inv F
 -0.388889 -0.000000 -0.000000    0.00308642   8 t-inv F
  0.388889 -0.388889 -0.000000    0.00308642   8 t-inv F
 -0.388889  0.388889  0.000000    0.00308642   8 t-inv F
  0.000000 -0.388889  0.000000    0.00308642   8 t-inv F
 -0.000000  0.388889 -0.000000    0.00308642   8 t-inv F
 -0.444444 -0.000000 -0.000000    0.00308642   9 t-inv F
  0.444444 -0.444444 -0.000000    0.00308642   9 t-inv F
 -0.444444  0.444444  0.000000    0.00308642   9 t-inv F
  0.000000 -0.444444  0.000000    0.00308642   9 t-inv F
 -0.000000  0.444444 -0.000000    0.00308642   9 t-inv F
  0.500000 -0.500000 -0.000000    0.00308642  10 t-inv F
  0.000000 -0.500000  0.000000    0.00308642  10 t-inv F
 -0.055556 -0.055556 -0.000000    0.00308642  11 t-inv F
  0.055556 -0.111111 -0.000000    0.00308642  11 t-inv F
 -0.055556  0.111111  0.000000    0.00308642  11 t-inv F
 -0.111111  0.055556  0.000000    0.00308642  11 t-inv F
  0.111111 -0.055556 -0.000000    0.00308642  11 t-inv F
 -0.111111 -0.055556 -0.000000    0.00308642  12 t-inv F
  0.111111 -0.166667 -0.000000    0.00308642  12 t-inv F
 -0.111111  0.166667  0.000000    0.00308642  12 t-inv F
 -0.166667  0.111111  0.000000    0.00308642  12 t-inv F
  0.166667 -0.111111 -0.000000    0.00308642  12 t-inv F
  0.055556 -0.166667  0.000000    0.00308642  12 t-inv F
 -0.055556  0.166667 -0.000000    0.00308642  12 t-inv F
 -0.166667  0.055556 -0.000000    0.00308642  12 t-inv F
  0.166667 -0.055556  0.000000    0.00308642  12 t-inv F
  0.055556  0.111111 -0.000000    0.00308642  12 t-inv F
 -0.055556 -0.111111  0.000000    0.00308642  12 t-inv F
 -0.166667 -0.055556 -0.000000    0.00308642  13 t-inv F
  0.166667 -0.222222 -0.000000    0.00308642  13 t-inv F
 -0.166667  0.222222  0.000000    0.00308642  13 t-inv F
 -0.222222  0.166667  0.000000    0.00308642  13 t-inv F
  0.222222 -0.166667 -0.000000    0.00308642  13 t-inv F
  0.055556 -0.222222  0.000000    0.00308642  13 t-inv F
 -0.055556  0.222222 -0.000000    0.00308642  13 t-inv F
 -0.222222  0.055556 -0.000000    0.00308642  13 t-inv F
  0.222222 -0.055556  0.000000    0.00308642  13 t-inv F
  0.055556  0.166667 -0.000000    0.00308642  13 t-inv F
 -0.055556 -0.166667  0.000000    0.00308642  13 t-inv F
 -0.222222 -0.055556 -0.000000    0.00308642  14 t-inv F
  0.222222 -0.277778 -0.000000    0.00308642  14 t-inv F
 -0.222222  0.277778  0.000000    0.00308642  14 t-inv F
 -0.277778  0.222222  0.000000    0.00308642  14 t-inv F
  0.277778 -0.222222 -0.000000    0.00308642  14 t-inv F
  0.055556 -0.277778  0.000000    0.00308642  14 t-inv F
 -0.055556  0.277778 -0.000000    0.00308642  14 t-inv F
 -0.277778  0.055556 -0.000000    0.00308642  14 t-inv F
  0.277778 -0.055556  0.000000    0.00308642  14 t-inv F
  0.055556  0.222222 -0.000000    0.00308642  14 t-inv F
 -0.055556 -0.222222  0.000000    0.00308642  14 t-inv F
 -0.277778 -0.055556 -0.000000    0.00308642  15 t-inv F
  0.277778 -0.333333 -0.000000    0.00308642  15 t-inv F
 -0.277778  0.333333  0.000000    0.00308642  15 t-inv F
 -0.333333  0.277778  0.000000    0.00308642  15 t-inv F
  0.333333 -0.277778 -0.000000    0.00308642  15 t-inv F
  0.055556 -0.333333  0.000000    0.00308642  15 t-inv F
 -0.055556  0.333333 -0.000000    0.00308642  15 t-inv F
 -0.333333  0.055556 -0.000000    0.00308642  15 t-inv F
  0.333333 -0.055556  0.000000    0.00308642  15 t-inv F
  0.055556  0.277778 -0.000000    0.00308642  15 t-inv F
 -0.055556 -0.277778  0.000000    0.00308642  15 t-inv F
 -0.333333 -0.055556 -0.000000    0.00308642  16 t-inv F
  0.333333 -0.388889 -0.000000    0.00308642  16 t-inv F
 -0.333333  0.388889  0.000000    0.00308642  16 t-inv F
 -0.388889  0.333333  0.000000    0.00308642  16 t-inv F
  0.388889 -0.333333 -0.000000    0.00308642  16 t-inv F
  0.055556 -0.388889  0.000000    0.00308642  16 t-inv F
 -0.055556  0.388889 -0.000000    0.00308642  16 t-inv F
 -0.388889  0.055556 -0.000000    0.00308642  16 t-inv F
  0.388889 -0.055556  0.000000    0.00308642  16 t-inv F
  0.055556  0.333333 -0.000000    0.00308642  16 t-inv F
 -0.055556 -0.333333  0.000000    0.00308642  16 t-inv F
 -0.388889 -0.055556 -0.000000    0.00308642  17 t-inv F
  0.388889 -0.444444 -0.000000    0.00308642  17 t-inv F
 -0.388889  0.444444  0.000000    0.00308642  17 t-inv F
 -0.444444  0.388889  0.000000    0.00308642  17 t-inv F
  0.444444 -0.388889 -0.000000    0.00308642  17 t-inv F
  0.055556 -0.444444  0.000000    0.00308642  17 t-inv F
 -0.055556  0.444444 -0.000000    0.00308642  17 t-inv F
 -0.444444  0.055556 -0.000000    0.00308642  17 t-inv F
  0.444444 -0.055556  0.000000    0.00308642  17 t-inv F
  0.055556  0.388889 -0.000000    0.00308642  17 t-inv F
 -0.055556 -0.388889  0.000000    0.00308642  17 t-inv F
 -0.444444 -0.055556 -0.000000    0.00308642  18 t-inv F
  0.444444 -0.500000 -0.000000    0.00308642  18 t-inv F
 -0.444444  0.500000  0.000000    0.00308642  18 t-inv F
 -0.500000  0.444444  0.000000    0.00308642  18 t-inv F
  0.500000 -0.444444 -0.000000    0.00308642  18 t-inv F
  0.055556 -0.500000  0.000000    0.00308642  18 t-inv F
 -0.055556  0.500000 -0.000000    0.00308642  18 t-inv F
 -0.500000  0.055556 -0.000000    0.00308642  18 t-inv F
  0.500000 -0.055556  0.000000    0.00308642  18 t-inv F
  0.055556  0.444444 -0.000000    0.00308642  18 t-inv F
 -0.055556 -0.444444  0.000000    0.00308642  18 t-inv F
 -0.111111 -0.111111 -0.000000    0.00308642  19 t-inv F
  0.111111 -0.222222 -0.000000    0.00308642  19 t-inv F
 -0.111111  0.222222  0.000000    0.00308642  19 t-inv F
 -0.222222  0.111111  0.000000    0.00308642  19 t-inv F
  0.222222 -0.111111 -0.000000    0.00308642  19 t-inv F
 -0.166667 -0.111111 -0.000000    0.00308642  20 t-inv F
  0.166667 -0.277778 -0.000000    0.00308642  20 t-inv F
 -0.166667  0.277778  0.000000    0.00308642  20 t-inv F
 -0.277778  0.166667  0.000000    0.00308642  20 t-inv F
  0.277778 -0.166667 -0.000000    0.00308642  20 t-inv F
  0.111111 -0.277778  0.000000    0.00308642  20 t-inv F
 -0.111111  0.277778 -0.000000    0.00308642  20 t-inv F
 -0.277778  0.111111 -0.000000    0.00308642  20 t-inv F
  0.277778 -0.111111  0.000000    0.00308642  20 t-inv F
  0.111111  0.166667 -0.000000    0.00308642  20 t-inv F
 -0.111111 -0.166667  0.000000    0.00308642  20 t-inv F
 -0.222222 -0.111111 -0.000000    0.00308642  21 t-inv F
  0.222222 -0.333333 -0.000000    0.00308642  21 t-inv F
 -0.222222  0.333333  0.000000    0.00308642  21 t-inv F
 -0.333333  0.222222  0.000000    0.00308642  21 t-inv F
  0.333333 -0.222222 -0.000000    0.00308642  21 t-inv F
  0.111111 -0.333333  0.000000    0.00308642  21 t-inv F
 -0.111111  0.333333 -0.000000    0.00308642  21 t-inv F
 -0.333333  0.111111 -0.000000    0.00308642  21 t-inv F
  0.333333 -0.111111  0.000000    0.00308642  21 t-inv F
  0.111111  0.222222 -0.000000    0.00308642  21 t-inv F
 -0.111111 -0.222222  0.000000    0.00308642  21 t-inv F
 -0.277778 -0.111111 -0.000000    0.00308642  22 t-inv F
  0.277778 -0.388889 -0.000000    0.00308642  22 t-inv F
 -0.277778  0.388889  0.000000    0.00308642  22 t-inv F
 -0.388889  0.277778  0.000000    0.00308642  22 t-inv F
  0.388889 -0.277778 -0.000000    0.00308642  22 t-inv F
  0.111111 -0.388889  0.000000    0.00308642  22 t-inv F
 -0.111111  0.388889 -0.000000    0.00308642  22 t-inv F
 -0.388889  0.111111 -0.000000    0.00308642  22 t-inv F
  0.388889 -0.111111  0.000000    0.00308642  22 t-inv F
  0.111111  0.277778 -0.000000    0.00308642  22 t-inv F
 -0.111111 -0.277778  0.000000    0.00308642  22 t-inv F
 -0.333333 -0.111111 -0.000000    0.00308642  23 t-inv F
  0.333333 -0.444444 -0.000000    0.00308642  23 t-inv F
 -0.333333  0.444444  0.000000    0.00308642  23 t-inv F
 -0.444444  0.333333  0.000000    0.00308642  23 t-inv F
  0.444444 -0.333333 -0.000000    0.00308642  23 t-inv F
  0.111111 -0.444444  0.000000    0.00308642  23 t-inv F
 -0.111111  0.444444 -0.000000    0.00308642  23 t-inv F
 -0.444444  0.111111 -0.000000    0.00308642  23 t-inv F
  0.444444 -0.111111  0.000000    0.00308642  23 t-inv F
  0.111111  0.333333 -0.000000    0.00308642  23 t-inv F
 -0.111111 -0.333333  0.000000    0.00308642  23 t-inv F
 -0.388889 -0.111111 -0.000000    0.00308642  24 t-inv F
  0.388889 -0.500000 -0.000000    0.00308642  24 t-inv F
 -0.388889  0.500000  0.000000    0.00308642  24 t-inv F
 -0.500000  0.388889  0.000000    0.00308642  24 t-inv F
  0.500000 -0.388889 -0.000000    0.00308642  24 t-inv F
  0.111111 -0.500000  0.000000    0.00308642  24 t-inv F
 -0.111111  0.500000 -0.000000    0.00308642  24 t-inv F
 -0.500000  0.111111 -0.000000    0.00308642  24 t-inv F
  0.500000 -0.111111  0.000000    0.00308642  24 t-inv F
  0.111111  0.388889 -0.000000    0.00308642  24 t-inv F
 -0.111111 -0.388889  0.000000    0.00308642  24 t-inv F
 -0.444444 -0.111111 -0.000000    0.00308642  25 t-inv F
  0.444444 -0.555556 -0.000000    0.00308642  25 t-inv F
 -0.444444  0.555556  0.000000    0.00308642  25 t-inv F
  0.111111 -0.555556  0.000000    0.00308642  25 t-inv F
 -0.111111  0.555556 -0.000000    0.00308642  25 t-inv F
 -0.166667 -0.166667 -0.000000    0.00308642  26 t-inv F
  0.166667 -0.333333 -0.000000    0.00308642  26 t-inv F
 -0.166667  0.333333  0.000000    0.00308642  26 t-inv F
 -0.333333  0.166667  0.000000    0.00308642  26 t-inv F
  0.333333 -0.166667 -0.000000    0.00308642  26 t-inv F
 -0.222222 -0.166667 -0.000000    0.00308642  27 t-inv F
  0.222222 -0.388889 -0.000000    0.00308642  27 t-inv F
 -0.222222  0.388889  0.000000    0.00308642  27 t-inv F
 -0.388889  0.222222  0.000000    0.00308642  27 t-inv F
  0.388889 -0.222222 -0.000000    0.00308642  27 t-inv F
  0.166667 -0.388889  0.000000    0.00308642  27 t-inv F
 -0.166667  0.388889 -0.000000    0.00308642  27 t-inv F
 -0.388889  0.166667 -0.000000    0.00308642  27 t-inv F
  0.388889 -0.166667  0.000000    0.00308642  27 t-inv F
  0.166667  0.222222 -0.000000    0.00308642  27 t-inv F
 -0.166667 -0.222222  0.000000    0.00308642  27 t-inv F
 -0.277778 -0.166667 -0.000000    0.00308642  28 t-inv F
  0.277778 -0.444444 -0.000000    0.00308642  28 t-inv F
 -0.277778  0.444444  0.000000    0.00308642  28 t-inv F
 -0.444444  0.277778  0.000000    0.00308642  28 t-inv F
  0.444444 -0.277778 -0.000000    0.00308642  28 t-inv F
  0.166667 -0.444444  0.000000    0.00308642  28 t-inv F
 -0.166667  0.444444 -0.000000    0.00308642  28 t-inv F
 -0.444444  0.166667 -0.000000    0.00308642  28 t-inv F
  0.444444 -0.166667  0.000000    0.00308642  28 t-inv F
  0.166667  0.277778 -0.000000    0.00308642  28 t-inv F
 -0.166667 -0.277778  0.000000    0.00308642  28 t-inv F
 -0.333333 -0.166667 -0.000000    0.00308642  29 t-inv F
  0.333333 -0.500000 -0.000000    0.00308642  29 t-inv F
 -0.333333  0.500000  0.000000    0.00308642  29 t-inv F
 -0.500000  0.333333  0.000000    0.00308642  29 t-inv F
  0.500000 -0.333333 -0.000000    0.00308642  29 t-inv F
  0.166667 -0.500000  0.000000    0.00308642  29 t-inv F
 -0.166667  0.500000 -0.000000    0.00308642  29 t-inv F
 -0.500000  0.166667 -0.000000    0.00308642  29 t-inv F
  0.500000 -0.166667  0.000000    0.00308642  29 t-inv F
  0.166667  0.333333 -0.000000    0.00308642  29 t-inv F
 -0.166667 -0.333333  0.000000    0.00308642  29 t-inv F
 -0.388889 -0.166667 -0.000000    0.00308642  30 t-inv F
  0.388889 -0.555556 -0.000000    0.00308642  30 t-inv F
 -0.388889  0.555556  0.000000    0.00308642  30 t-inv F
 -0.555556  0.388889  0.000000    0.00308642  30 t-inv F
  0.555556 -0.388889 -0.000000    0.00308642  30 t-inv F
  0.166667 -0.555556  0.000000    0.00308642  30 t-inv F
 -0.166667  0.555556 -0.000000    0.00308642  30 t-inv F
 -0.555556  0.166667 -0.000000    0.00308642  30 t-inv F
  0.555556 -0.166667  0.000000    0.00308642  30 t-inv F
  0.166667  0.388889 -0.000000    0.00308642  30 t-inv F
 -0.166667 -0.388889  0.000000    0.00308642  30 t-inv F
 -0.222222 -0.222222 -0.000000    0.00308642  31 t-inv F
  0.222222 -0.444444 -0.000000    0.00308642  31 t-inv F
 -0.222222  0.444444  0.000000    0.00308642  31 t-inv F
 -0.444444  0.222222  0.000000    0.00308642  31 t-inv F
  0.444444 -0.222222 -0.000000    0.00308642  31 t-inv F
 -0.277778 -0.222222 -0.000000    0.00308642  32 t-inv F
  0.277778 -0.500000 -0.000000    0.00308642  32 t-inv F
 -0.277778  0.500000  0.000000    0.00308642  32 t-inv F
 -0.500000  0.277778  0.000000    0.00308642  32 t-inv F
  0.500000 -0.277778 -0.000000    0.00308642  32 t-inv F
  0.222222 -0.500000  0.000000    0.00308642  32 t-inv F
 -0.222222  0.500000 -0.000000    0.00308642  32 t-inv F
 -0.500000  0.222222 -0.000000    0.00308642  32 t-inv F
  0.500000 -0.222222  0.000000    0.00308642  32 t-inv F
  0.222222  0.277778 -0.000000    0.00308642  32 t-inv F
 -0.222222 -0.277778  0.000000    0.00308642  32 t-inv F
 -0.333333 -0.222222 -0.000000    0.00308642  33 t-inv F
  0.333333 -0.555556 -0.000000    0.00308642  33 t-inv F
 -0.333333  0.555556  0.000000    0.00308642  33 t-inv F
 -0.555556  0.333333  0.000000    0.00308642  33 t-inv F
  0.555556 -0.333333 -0.000000    0.00308642  33 t-inv F
  0.222222 -0.555556  0.000000    0.00308642  33 t-inv F
 -0.222222  0.555556 -0.000000    0.00308642  33 t-inv F
 -0.555556  0.222222 -0.000000    0.00308642  33 t-inv F
  0.555556 -0.222222  0.000000    0.00308642  33 t-inv F
  0.222222  0.333333 -0.000000    0.00308642  33 t-inv F
 -0.222222 -0.333333  0.000000    0.00308642  33 t-inv F
 -0.388889 -0.222222 -0.000000    0.00308642  34 t-inv F
  0.388889 -0.611111 -0.000000    0.00308642  34 t-inv F
 -0.388889  0.611111  0.000000    0.00308642  34 t-inv F
  0.222222 -0.611111  0.000000    0.00308642  34 t-inv F
 -0.222222  0.611111 -0.000000    0.00308642  34 t-inv F
 -0.277778 -0.277778 -0.000000    0.00308642  35 t-inv F
  0.277778 -0.555556 -0.000000    0.00308642  35 t-inv F
 -0.277778  0.555556  0.000000    0.00308642  35 t-inv F
 -0.555556  0.277778  0.000000    0.00308642  35 t-inv F
  0.555556 -0.277778 -0.000000    0.00308642  35 t-inv F
 -0.333333 -0.277778 -0.000000    0.00308642  36 t-inv F
  0.333333 -0.611111 -0.000000    0.00308642  36 t-inv F
 -0.333333  0.611111  0.000000    0.00308642  36 t-inv F
 -0.611111  0.333333  0.000000    0.00308642  36 t-inv F
  0.611111 -0.333333 -0.000000    0.00308642  36 t-inv F
  0.277778 -0.611111  0.000000    0.00308642  36 t-inv F
 -0.277778  0.611111 -0.000000    0.00308642  36 t-inv F
 -0.611111  0.277778 -0.000000    0.00308642  36 t-inv F
  0.611111 -0.277778  0.000000    0.00308642  36 t-inv F
  0.277778  0.333333 -0.000000    0.00308642  36 t-inv F
 -0.277778 -0.333333  0.000000    0.00308642  36 t-inv F
 -0.333333 -0.333333 -0.000000    0.00308642  37 t-inv F


--------------------------------------------------------------------------------------------------------




 Dimension of arrays:
   k-points           NKPTS =     37   k-points in BZ     NKDIM =     37   number of bands    NBANDS=    112
   number of dos      NEDOS =    301   number of ions     NIONS =     18
   non local maximal  LDIM  =      8   non local SUM 2l+1 LMDIM =     26
   total plane-waves  NPLWV = 117600
   max r-space proj   IRMAX =      1   max aug-charges    IRDMAX=  10950
   dimension x,y,z NGX =    20 NGY =   20 NGZ =  294
   dimension x,y,z NGXF=    40 NGYF=   40 NGZF=  588
   support grid    NGXF=    40 NGYF=   40 NGZF=  588
   ions per type =               6  12
 NGX,Y,Z   is equivalent  to a cutoff of  10.02, 10.02,  9.78 a.u.
 NGXF,Y,Z  is equivalent  to a cutoff of  20.04, 20.04, 19.55 a.u.


 I would recommend the setting:
   dimension x,y,z NGX =    19 NGY =   19 NGZ =  290
 SYSTEM =  unknown system                          
 POSCAR =   W Se                                   

 Startparameter for this run:
   NWRITE =      2    write-flag & timer
   PREC   = accura    normal or accurate (medium, high low for compatibility)
   ISTART =      0    job   : 0-new  1-cont  2-samecut
   ICHARG =      2    charge: 1-file 2-atom 10-const
   ISPIN  =      1    spin polarized calculation?
   LNONCOLLINEAR =      F non collinear calculations
   LSORBIT =      F    spin-orbit coupling
   INIWAV =      1    electr: 0-lowe 1-rand  2-diag
   LASPH  =      F    aspherical Exc in radial PAW
   METAGGA=      F    non-selfconsistent MetaGGA calc.

 Electronic Relaxation 1
   ENCUT  =  317.1 eV  23.31 Ry    4.83 a.u.   4.82  4.82 72.60*2*pi/ulx,y,z
   ENINI  =  317.1     initial cutoff
   ENAUG  =  807.8 eV  augmentation charge cutoff
   NELM   =     60;   NELMIN=  5; NELMDL= -5     # of ELM steps 
   EDIFF  = 0.1E-07   stopping-criterion for ELM
   LREAL  =      F    real-space projection
   NLSPLINE    = F    spline interpolate recip. space projectors
   LCOMPAT=      F    compatible to vasp.4.4
   GGA_COMPAT  = T    GGA compatible to vasp.4.4-vasp.4.6
   LMAXPAW     = -100 max onsite density
   LMAXMIX     =    2 max onsite mixed and CHGCAR
   VOSKOWN=      0    Vosko Wilk Nusair interpolation
   ROPT   =    0.00000   0.00000
 Ionic relaxation
   EDIFFG = 0.1E-06   stopping-criterion for IOM
   NSW    =      0    number of steps for IOM
   NBLOCK =      1;   KBLOCK =      1    inner block; outer block 
   IBRION =     -1    ionic relax: 0-MD 1-quasi-New 2-CG
   NFREE  =      0    steps in history (QN), initial steepest desc. (CG)
   ISIF   =      2    stress and relaxation
   IWAVPR =     10    prediction:  0-non 1-charg 2-wave 3-comb
   ISYM   =      2    0-nonsym 1-usesym 2-fastsym
   LCORR  =      T    Harris-Foulkes like correction to forces

   POTIM  = 0.5000    time-step for ionic-motion
   TEIN   =    0.0    initial temperature
   TEBEG  =    0.0;   TEEND  =   0.0 temperature during run
   SMASS  =  -3.00    Nose mass-parameter (am)
   estimated Nose-frequenzy (Omega)   =  0.10E-29 period in steps =****** mass=  -0.252E-27a.u.
   SCALEE = 1.0000    scale energy and forces
   NPACO  =    256;   APACO  = 16.0  distance and # of slots for P.C.
   PSTRESS=    0.0 pullay stress

  Mass of Ions in am
   POMASS = 183.85 78.96
  Ionic Valenz
   ZVAL   =  14.00  6.00
  Atomic Wigner-Seitz radii
   RWIGS  =  -1.00 -1.00
  virtual crystal weights 
   VCA    =   1.00  1.00
   NELECT =     156.0000    total number of electrons
   NUPDOWN=      -1.0000    fix difference up-down

 DOS related values:
   EMIN   =  10.00;   EMAX   =-10.00  energy-range for DOS
   EFERMI =   0.00
   ISMEAR =    -5;   SIGMA  =   0.01  broadening in eV -4-tet -1-fermi 0-gaus

 Electronic relaxation 2 (details)
   IALGO  =     38    algorithm
   LDIAG  =      T    sub-space diagonalisation (order eigenvalues)
   LSUBROT=      F    optimize rotation matrix (better conditioning)
   TURBO    =      0    0=normal 1=particle mesh
   IRESTART =      0    0=no restart 2=restart with 2 vectors
   NREBOOT  =      0    no. of reboots
   NMIN     =      0    reboot dimension
   EREF     =   0.00    reference energy to select bands
   IMIX   =      4    mixing-type and parameters
     AMIX     =   0.40;   BMIX     =  1.00
     AMIX_MAG =   1.60;   BMIX_MAG =  1.00
     AMIN     =   0.10
     WC   =   100.;   INIMIX=   1;  MIXPRE=   1;  MAXMIX= -45

 Intra band minimization:
   WEIMIN = 0.0000     energy-eigenvalue tresh-hold
   EBREAK =  0.22E-10  absolut break condition
   DEPER  =   0.30     relativ break condition  

   TIME   =   0.40     timestep for ELM

  volume/ion in A,a.u.               =      26.50       178.83
  Fermi-wavevector in a.u.,A,eV,Ry     =   1.127918  2.131455 17.309309  1.272198
  Thomas-Fermi vector in A             =   2.264606
 
 Write flags
   LWAVE  =      T    write WAVECAR
   LCHARG =      T    write CHGCAR
   LVTOT  =      F    write LOCPOT, total local potential
   LVHAR  =      F    write LOCPOT, Hartree potential only
   LELF   =      F    write electronic localiz. function (ELF)
   LORBIT =      0    0 simple, 1 ext, 2 COOP (PROOUT)


 Dipole corrections
   LMONO  =      F    monopole corrections only (constant potential shift)
   LDIPOL =      F    correct potential (dipole corrections)
   IDIPOL =      0    1-x, 2-y, 3-z, 4-all directions 
   EPSILON=  1.0000000 bulk dielectric constant

 Exchange correlation treatment:
   GGA     =    PE    GGA type
   LEXCH   =     8    internal setting for exchange type
   VOSKOWN=      0    Vosko Wilk Nusair interpolation
   LHFCALC =     F    Hartree Fock is set to
   LHFONE  =     F    Hartree Fock one center treatment
   AEXX    =    0.0000 exact exchange contribution

 Linear response parameters
   LEPSILON=     T    determine dielectric tensor
   LRPA    =     F    only Hartree local field effects (RPA)
   LNABLA  =     F    use nabla operator in PAW spheres
   LVEL    =     F    velocity operator in full k-point grid
   LINTERFAST=   F  fast interpolation
   KINTER  =     0    interpolate to denser k-point grid
   CSHIFT  =0.1000    complex shift for real part using Kramers Kronig
   OMEGAMAX=  -1.0    maximum frequency
   DEG_THRESHOLD= 0.2000000E-02 threshold for treating states as degnerate
   RTIME   =    0.100 relaxation time in fs

 Orbital magnetization related:
   ORBITALMAG=     F  switch on orbital magnetization
   LCHIMAG   =     F  perturbation theory with respect to B field
   DQ        =  0.001000  dq finite difference perturbation B field



--------------------------------------------------------------------------------------------------------


 Static calculation
 charge density and potential will be updated during run
 non-spin polarized calculation
 Variant of blocked Davidson
 Davidson routine will perform the subspace rotation
 perform sub-space diagonalisation
    after iterative eigenvector-optimisation
 modified Broyden-mixing scheme, WC =      100.0
 initial mixing is a Kerker type mixing with AMIX =  0.4000 and BMIX =      1.0000
 Hartree-type preconditioning will be used
 using additional bands           34
 reciprocal scheme for non local part
 use partial core corrections
 calculate Harris-corrections to forces 
   (improved forces if not selfconsistent)
 use gradient corrections 
 use of overlap-Matrix (Vanderbilt PP)
 Fermi weights with tetrahedron method with Bloechl corrections


--------------------------------------------------------------------------------------------------------


  energy-cutoff  :      317.13
  volume of cell :      477.00
      direct lattice vectors                 reciprocal lattice vectors
     3.319006624  0.000000000  0.000000000     0.301294970  0.173952732  0.000000000
    -1.659503312  2.874344052  0.000000000     0.000000000  0.347905464  0.000000000
     0.000000000  0.000000000 50.000000000     0.000000000  0.000000000  0.020000000

  length of vectors
     3.319006624  3.319006624 50.000000000     0.347905464  0.347905464  0.020000000


 
 k-points in units of 2pi/SCALE and weight: KPOINTS created by Atomic Simulation Env
   0.00000000  0.00000000  0.00000000       0.003
   0.01673861  0.00966404  0.00000000       0.019
   0.03347722  0.01932808  0.00000000       0.019
   0.05021583  0.02899212  0.00000000       0.019
   0.06695444  0.03865616  0.00000000       0.019
   0.08369305  0.04832020  0.00000000       0.019
   0.10043166  0.05798424  0.00000000       0.019
   0.11717027  0.06764828  0.00000000       0.019
   0.13390888  0.07731233  0.00000000       0.019
   0.15064748  0.08697637  0.00000000       0.009
   0.01673861  0.02899212  0.00000000       0.019
   0.03347722  0.03865616  0.00000000       0.037
   0.05021583  0.04832020  0.00000000       0.037
   0.06695444  0.05798424  0.00000000       0.037
   0.08369305  0.06764828  0.00000000       0.037
   0.10043166  0.07731233  0.00000000       0.037
   0.11717027  0.08697637  0.00000000       0.037
   0.13390888  0.09664041  0.00000000       0.037
   0.03347722  0.05798424  0.00000000       0.019
   0.05021583  0.06764828  0.00000000       0.037
   0.06695444  0.07731233  0.00000000       0.037
   0.08369305  0.08697637  0.00000000       0.037
   0.10043166  0.09664041  0.00000000       0.037
   0.11717027  0.10630445  0.00000000       0.037
   0.13390888  0.11596849  0.00000000       0.019
   0.05021583  0.08697637  0.00000000       0.019
   0.06695444  0.09664041  0.00000000       0.037
   0.08369305  0.10630445  0.00000000       0.037
   0.10043166  0.11596849  0.00000000       0.037
   0.11717027  0.12563253  0.00000000       0.037
   0.06695444  0.11596849  0.00000000       0.019
   0.08369305  0.12563253  0.00000000       0.037
   0.10043166  0.13529657  0.00000000       0.037
   0.11717027  0.14496061  0.00000000       0.019
   0.08369305  0.14496061  0.00000000       0.019
   0.10043166  0.15462465  0.00000000       0.037
   0.10043166  0.17395273  0.00000000       0.006
 
 k-points in reciprocal lattice and weights: KPOINTS created by Atomic Simulation Env
   0.00000000  0.00000000  0.00000000       0.003
   0.05555556  0.00000000  0.00000000       0.019
   0.11111111  0.00000000  0.00000000       0.019
   0.16666667  0.00000000  0.00000000       0.019
   0.22222222  0.00000000  0.00000000       0.019
   0.27777778  0.00000000  0.00000000       0.019
   0.33333333  0.00000000  0.00000000       0.019
   0.38888889  0.00000000  0.00000000       0.019
   0.44444444  0.00000000  0.00000000       0.019
   0.50000000  0.00000000  0.00000000       0.009
   0.05555556  0.05555556  0.00000000       0.019
   0.11111111  0.05555556  0.00000000       0.037
   0.16666667  0.05555556  0.00000000       0.037
   0.22222222  0.05555556  0.00000000       0.037
   0.27777778  0.05555556  0.00000000       0.037
   0.33333333  0.05555556  0.00000000       0.037
   0.38888889  0.05555556  0.00000000       0.037
   0.44444444  0.05555556  0.00000000       0.037
   0.11111111  0.11111111  0.00000000       0.019
   0.16666667  0.11111111  0.00000000       0.037
   0.22222222  0.11111111  0.00000000       0.037
   0.27777778  0.11111111  0.00000000       0.037
   0.33333333  0.11111111  0.00000000       0.037
   0.38888889  0.11111111  0.00000000       0.037
   0.44444444  0.11111111  0.00000000       0.019
   0.16666667  0.16666667  0.00000000       0.019
   0.22222222  0.16666667  0.00000000       0.037
   0.27777778  0.16666667  0.00000000       0.037
   0.33333333  0.16666667  0.00000000       0.037
   0.38888889  0.16666667  0.00000000       0.037
   0.22222222  0.22222222  0.00000000       0.019
   0.27777778  0.22222222  0.00000000       0.037
   0.33333333  0.22222222  0.00000000       0.037
   0.38888889  0.22222222  0.00000000       0.019
   0.27777778  0.27777778  0.00000000       0.019
   0.33333333  0.27777778  0.00000000       0.037
   0.33333333  0.33333333  0.00000000       0.006
 
 position of ions in fractional coordinates (direct lattice) 
   0.16666667  0.33333333  0.17550000
   0.83333333  0.66666667  0.30530000
   0.16666667  0.33333333  0.43510000
   0.83333333  0.66666667  0.56490000
   0.16666667  0.33333333  0.69470000
   0.83333333  0.66666667  0.82450000
   0.83333333  0.66666667  0.20908553
   0.83333333  0.66666667  0.14191447
   0.16666667  0.33333333  0.33888553
   0.16666667  0.33333333  0.27171447
   0.83333333  0.66666667  0.46868553
   0.83333333  0.66666667  0.40151447
   0.16666667  0.33333333  0.59848553
   0.16666667  0.33333333  0.53131447
   0.83333333  0.66666667  0.72828553
   0.83333333  0.66666667  0.66111447
   0.16666667  0.33333333  0.85808553
   0.16666667  0.33333333  0.79091447
 
 position of ions in cartesian coordinates  (Angst):
  -0.00000000  0.95811468  8.77500000
   1.65950331  1.91622937 15.26500000
  -0.00000000  0.95811468 21.75500000
   1.65950331  1.91622937 28.24500000
  -0.00000000  0.95811468 34.73500000
   1.65950331  1.91622937 41.22500000
   1.65950331  1.91622937 10.45427640
   1.65950331  1.91622937  7.09572360
  -0.00000000  0.95811468 16.94427640
  -0.00000000  0.95811468 13.58572360
   1.65950331  1.91622937 23.43427640
   1.65950331  1.91622937 20.07572360
  -0.00000000  0.95811468 29.92427640
  -0.00000000  0.95811468 26.56572360
   1.65950331  1.91622937 36.41427640
   1.65950331  1.91622937 33.05572360
  -0.00000000  0.95811468 42.90427640
  -0.00000000  0.95811468 39.54572360
 


--------------------------------------------------------------------------------------------------------


 k-point  1 :   0.0000 0.0000 0.0000  plane waves:    6121
 k-point  2 :   0.0556 0.0000 0.0000  plane waves:    6111
 k-point  3 :   0.1111 0.0000 0.0000  plane waves:    6099
 k-point  4 :   0.1667 0.0000 0.0000  plane waves:    6067
 k-point  5 :   0.2222 0.0000 0.0000  plane waves:    6078
 k-point  6 :   0.2778 0.0000 0.0000  plane waves:    6110
 k-point  7 :   0.3333 0.0000 0.0000  plane waves:    6112
 k-point  8 :   0.3889 0.0000 0.0000  plane waves:    6106
 k-point  9 :   0.4444 0.0000 0.0000  plane waves:    6154
 k-point 10 :   0.5000 0.0000 0.0000  plane waves:    6148
 k-point 11 :   0.0556 0.0556 0.0000  plane waves:    6097
 k-point 12 :   0.1111 0.0556 0.0000  plane waves:    6081
 k-point 13 :   0.1667 0.0556 0.0000  plane waves:    6065
 k-point 14 :   0.2222 0.0556 0.0000  plane waves:    6087
 k-point 15 :   0.2778 0.0556 0.0000  plane waves:    6111
 k-point 16 :   0.3333 0.0556 0.0000  plane waves:    6129
 k-point 17 :   0.3889 0.0556 0.0000  plane waves:    6117
 k-point 18 :   0.4444 0.0556 0.0000  plane waves:    6146
 k-point 19 :   0.1111 0.1111 0.0000  plane waves:    6073
 k-point 20 :   0.1667 0.1111 0.0000  plane waves:    6075
 k-point 21 :   0.2222 0.1111 0.0000  plane waves:    6102
 k-point 22 :   0.2778 0.1111 0.0000  plane waves:    6123
 k-point 23 :   0.3333 0.1111 0.0000  plane waves:    6123
 k-point 24 :   0.3889 0.1111 0.0000  plane waves:    6135
 k-point 25 :   0.4444 0.1111 0.0000  plane waves:    6144
 k-point 26 :   0.1667 0.1667 0.0000  plane waves:    6095
 k-point 27 :   0.2222 0.1667 0.0000  plane waves:    6106
 k-point 28 :   0.2778 0.1667 0.0000  plane waves:    6111
 k-point 29 :   0.3333 0.1667 0.0000  plane waves:    6126
 k-point 30 :   0.3889 0.1667 0.0000  plane waves:    6142
 k-point 31 :   0.2222 0.2222 0.0000  plane waves:    6129
 k-point 32 :   0.2778 0.2222 0.0000  plane waves:    6122
 k-point 33 :   0.3333 0.2222 0.0000  plane waves:    6162
 k-point 34 :   0.3889 0.2222 0.0000  plane waves:    6183
 k-point 35 :   0.2778 0.2778 0.0000  plane waves:    6135
 k-point 36 :   0.3333 0.2778 0.0000  plane waves:    6164
 k-point 37 :   0.3333 0.3333 0.0000  plane waves:    6165

 maximum and minimum number of plane-waves per node :      6183     6065

 maximum number of plane-waves:      6183
 maximum index in each direction: 
   IXMAX=    4   IYMAX=    4   IZMAX=   72
   IXMIN=   -5   IYMIN=   -5   IZMIN=  -72

 NGX is ok and might be reduce to  20
 NGY is ok and might be reduce to  20
 NGZ is ok and might be reduce to 290

 serial   3D FFT for wavefunctions
 parallel 3D FFT for charge:
    minimum data exchange during FFTs selected (reduces bandwidth)


 total amount of memory used by VASP on root node   152353. kBytes
========================================================================

   base      :      30000. kBytes
   nonl-proj :      97027. kBytes
   fftplans  :       1943. kBytes
   grid      :       7351. kBytes
   one-center:        584. kBytes
   wavefun   :      15448. kBytes
 
     INWAV:  cpu time    0.0000: real time    0.0000
 Broyden mixing: mesh for mixing (old mesh)
   NGX =  9   NGY =  9   NGZ =145
  (NGX  = 40   NGY  = 40   NGZ  =588)
  gives a total of  11745 points

 initial charge density was supplied:
 charge density of overlapping atoms calculated
 number of electron     156.0000000 magnetization 
 keeping initial charge density in first step


--------------------------------------------------------------------------------------------------------


 Maximum index for augmentation-charges          877 (set IRDMAX)


--------------------------------------------------------------------------------------------------------


 First call to EWALD:  gamma=   0.227
 Maximum number of real-space cells 7x 7x 1
 Maximum number of reciprocal cells 1x 1x15

 FEWALD executed in parallel
    FEWALD:  cpu time    0.0020: real time    0.0013


----------------------------------------- Iteration    1(   1)  ---------------------------------------


    POTLOK:  cpu time    0.0300: real time    0.0305
    SETDIJ:  cpu time    0.0070: real time    0.0071
     EDDAV:  cpu time    8.2158: real time    8.2287
 BZINTS: Fermi energy: 13.612620;156.000000 electrons
         Band energy:-954.635398;  BLOECHL correction: -0.079679
       DOS:  cpu time    0.0320: real time    0.0319
    --------------------------------------------
      LOOP:  cpu time    8.2857: real time    8.3003

 eigenvalue-minimisations  :  9912
 total energy-change (2. order) : 0.1045427E+04  (-0.6584403E+04)
 number of electron     156.0000000 magnetization 
 augmentation part      156.0000000 magnetization 

 Free energy of the ion-electron system (eV)
  ---------------------------------------------------
  alpha Z        PSCENC =       522.04194318
  Ewald energy   TEWEN  =     40526.31199986
  -Hartree energ DENC   =    -53967.61733232
  -exchange      EXHF   =         0.00000000
  -V(xc)+E(xc)   XCENC  =      -116.66837235
  PAW double counting   =     11871.94344481   -11103.42247790
  entropy T*S    EENTRO =         0.00000000
  eigenvalues    EBANDS =      -954.63539812
  atomic energy  EATOM  =     14267.47281321
  Solvation  Ediel_sol  =         0.00000000
  ---------------------------------------------------
  free energy    TOTEN  =      1045.42662038 eV

  energy without entropy =     1045.42662038  energy(sigma->0) =     1045.42662038


--------------------------------------------------------------------------------------------------------




----------------------------------------- Iteration    1(   2)  ---------------------------------------


     EDDAV:  cpu time    9.0886: real time    9.0950
 BZINTS: Fermi energy:  5.558673;156.000000 electrons
         Band energy:***********;  BLOECHL correction:  0.000000
       DOS:  cpu time    0.0070: real time    0.0062
    --------------------------------------------
      LOOP:  cpu time    9.0966: real time    9.1037

 eigenvalue-minimisations  : 11144
 total energy-change (2. order) :-0.1119545E+04  (-0.1092805E+04)
 number of electron     156.0000000 magnetization 
 augmentation part      156.0000000 magnetization 

 Free energy of the ion-electron system (eV)
  ---------------------------------------------------
  alpha Z        PSCENC =       522.04194318
  Ewald energy   TEWEN  =     40526.31199986
  -Hartree energ DENC   =    -53967.61733232
  -exchange      EXHF   =         0.00000000
  -V(xc)+E(xc)   XCENC  =      -116.66837235
  PAW double counting   =     11871.94344481   -11103.42247790
  entropy T*S    EENTRO =         0.00000000
  eigenvalues    EBANDS =     -2074.17999647
  atomic energy  EATOM  =     14267.47281321
  Solvation  Ediel_sol  =         0.00000000
  ---------------------------------------------------
  free energy    TOTEN  =       -74.11797797 eV

  energy without entropy =      -74.11797797  energy(sigma->0) =      -74.11797797


--------------------------------------------------------------------------------------------------------




----------------------------------------- Iteration    1(   3)  ---------------------------------------


     EDDAV:  cpu time    8.6777: real time    8.6839
 BZINTS: Fermi energy:  4.942583;156.000000 electrons
         Band energy:***********;  BLOECHL correction:  0.000000
       DOS:  cpu time    0.0070: real time    0.0066
    --------------------------------------------
      LOOP:  cpu time    8.6847: real time    8.6930

 eigenvalue-minimisations  : 10500
 total energy-change (2. order) :-0.7900201E+02  (-0.7828283E+02)
 number of electron     156.0000000 magnetization 
 augmentation part      156.0000000 magnetization 

 Free energy of the ion-electron system (eV)
  ---------------------------------------------------
  alpha Z        PSCENC =       522.04194318
  Ewald energy   TEWEN  =     40526.31199986
  -Hartree energ DENC   =    -53967.61733232
  -exchange      EXHF   =         0.00000000
  -V(xc)+E(xc)   XCENC  =      -116.66837235
  PAW double counting   =     11871.94344481   -11103.42247790
  entropy T*S    EENTRO =         0.00000000
  eigenvalues    EBANDS =     -2153.18200965
  atomic energy  EATOM  =     14267.47281321
  Solvation  Ediel_sol  =         0.00000000
  ---------------------------------------------------
  free energy    TOTEN  =      -153.11999115 eV

  energy without entropy =     -153.11999115  energy(sigma->0) =     -153.11999115


--------------------------------------------------------------------------------------------------------




----------------------------------------- Iteration    1(   4)  ---------------------------------------


     EDDAV:  cpu time    9.8305: real time    9.8403
 BZINTS: Fermi energy:  4.771864;156.000000 electrons
         Band energy:***********;  BLOECHL correction:  0.000000
       DOS:  cpu time    0.0060: real time    0.0065
    --------------------------------------------
      LOOP:  cpu time    9.8375: real time    9.8501

 eigenvalue-minimisations  : 11984
 total energy-change (2. order) :-0.2389512E+01  (-0.2386596E+01)
 number of electron     156.0000000 magnetization 
 augmentation part      156.0000000 magnetization 

 Free energy of the ion-electron system (eV)
  ---------------------------------------------------
  alpha Z        PSCENC =       522.04194318
  Ewald energy   TEWEN  =     40526.31199986
  -Hartree energ DENC   =    -53967.61733232
  -exchange      EXHF   =         0.00000000
  -V(xc)+E(xc)   XCENC  =      -116.66837235
  PAW double counting   =     11871.94344481   -11103.42247790
  entropy T*S    EENTRO =         0.00000000
  eigenvalues    EBANDS =     -2155.57152198
  atomic energy  EATOM  =     14267.47281321
  Solvation  Ediel_sol  =         0.00000000
  ---------------------------------------------------
  free energy    TOTEN  =      -155.50950348 eV

  energy without entropy =     -155.50950348  energy(sigma->0) =     -155.50950348


--------------------------------------------------------------------------------------------------------




----------------------------------------- Iteration    1(   5)  ---------------------------------------


     EDDAV:  cpu time    9.2606: real time    9.2710
 BZINTS: Fermi energy:  4.808372;156.000000 electrons
         Band energy:***********;  BLOECHL correction:  0.000000
       DOS:  cpu time    0.0060: real time    0.0058
    CHARGE:  cpu time    0.2390: real time    0.2385
    MIXING:  cpu time    0.0010: real time    0.0013
    --------------------------------------------
      LOOP:  cpu time    9.5076: real time    9.5193

 eigenvalue-minimisations  : 10668
 total energy-change (2. order) :-0.2622373E-01  (-0.2622191E-01)
 number of electron     155.9999995 magnetization 
 augmentation part      -26.5399731 magnetization 

 Broyden mixing:
  rms(total) = 0.18806E+02    rms(broyden)= 0.18806E+02
  rms(prec ) = 0.18811E+02
  weight for this iteration     100.00

 Free energy of the ion-electron system (eV)
  ---------------------------------------------------
  alpha Z        PSCENC =       522.04194318
  Ewald energy   TEWEN  =     40526.31199986
  -Hartree energ DENC   =    -53967.61733232
  -exchange      EXHF   =         0.00000000
  -V(xc)+E(xc)   XCENC  =      -116.66837235
  PAW double counting   =     11871.94344481   -11103.42247790
  entropy T*S    EENTRO =         0.00000000
  eigenvalues    EBANDS =     -2155.59774571
  atomic energy  EATOM  =     14267.47281321
  Solvation  Ediel_sol  =         0.00000000
  ---------------------------------------------------
  free energy    TOTEN  =      -155.53572721 eV

  energy without entropy =     -155.53572721  energy(sigma->0) =     -155.53572721


--------------------------------------------------------------------------------------------------------




----------------------------------------- Iteration    1(   6)  ---------------------------------------


    POTLOK:  cpu time    0.0310: real time    0.0312
    SETDIJ:  cpu time    0.0070: real time    0.0072
     EDDAV:  cpu time    8.3627: real time    8.3731
 BZINTS: Fermi energy:  3.502017;156.000000 electrons
         Band energy:***********;  BLOECHL correction:  0.000000
       DOS:  cpu time    0.0050: real time    0.0058
    CHARGE:  cpu time    0.2480: real time    0.2475
    MIXING:  cpu time    0.0010: real time    0.0013
    --------------------------------------------
      LOOP:  cpu time    8.6547: real time    8.6689

 eigenvalue-minimisations  :  9380
 total energy-change (2. order) : 0.1165972E+02  (-0.4280828E+01)
 number of electron     155.9999995 magnetization 
 augmentation part      -24.8163116 magnetization 

 Broyden mixing:
  rms(total) = 0.16352E+02    rms(broyden)= 0.16352E+02
  rms(prec ) = 0.16354E+02
  weight for this iteration     100.00

 eigenvalues of (default mixing * dielectric matrix)
  average eigenvalue GAMMA=   4.2106
  4.2106

 Free energy of the ion-electron system (eV)
  ---------------------------------------------------
  alpha Z        PSCENC =       522.04194318
  Ewald energy   TEWEN  =     40526.31199986
  -Hartree energ DENC   =    -53740.03325531
  -exchange      EXHF   =         0.00000000
  -V(xc)+E(xc)   XCENC  =      -120.98163109
  PAW double counting   =     14514.09010698   -13754.52826277
  entropy T*S    EENTRO =         0.00000000
  eigenvalues    EBANDS =     -2358.24972224
  atomic energy  EATOM  =     14267.47281321
  Solvation  Ediel_sol  =         0.00000000
  ---------------------------------------------------
  free energy    TOTEN  =      -143.87600816 eV

  energy without entropy =     -143.87600816  energy(sigma->0) =     -143.87600816


--------------------------------------------------------------------------------------------------------




----------------------------------------- Iteration    1(   7)  ---------------------------------------


    POTLOK:  cpu time    0.0310: real time    0.0317
    SETDIJ:  cpu time    0.0070: real time    0.0071
     EDDAV:  cpu time    8.6497: real time    8.6663
 BZINTS: Fermi energy:  6.493399;156.000000 electrons
         Band energy:***********;  BLOECHL correction:  0.000000
       DOS:  cpu time    0.0070: real time    0.0072
    CHARGE:  cpu time    0.2300: real time    0.2298
    MIXING:  cpu time    0.0010: real time    0.0013
    --------------------------------------------
      LOOP:  cpu time    8.9266: real time    8.9482

 eigenvalue-minimisations  : 10220
 total energy-change (2. order) :-0.3095941E+02  (-0.1347374E+02)
 number of electron     155.9999995 magnetization 
 augmentation part      -26.6644282 magnetization 

 Broyden mixing:
  rms(total) = 0.15926E+02    rms(broyden)= 0.15926E+02
  rms(prec ) = 0.15946E+02
  weight for this iteration     100.00

 eigenvalues of (default mixing * dielectric matrix)
  average eigenvalue GAMMA=   1.5537
  0.8490  2.2583

 Free energy of the ion-electron system (eV)
  ---------------------------------------------------
  alpha Z        PSCENC =       522.04194318
  Ewald energy   TEWEN  =     40526.31199986
  -Hartree energ DENC   =    -54134.74531780
  -exchange      EXHF   =         0.00000000
  -V(xc)+E(xc)   XCENC  =      -118.74546488
  PAW double counting   =     24682.14465594   -23898.98465803
  entropy T*S    EENTRO =         0.00000000
  eigenvalues    EBANDS =     -2020.33138631
  atomic energy  EATOM  =     14267.47281321
  Solvation  Ediel_sol  =         0.00000000
  ---------------------------------------------------
  free energy    TOTEN  =      -174.83541482 eV

  energy without entropy =     -174.83541482  energy(sigma->0) =     -174.83541482


--------------------------------------------------------------------------------------------------------




----------------------------------------- Iteration    1(   8)  ---------------------------------------


    POTLOK:  cpu time    0.0290: real time    0.0288
    SETDIJ:  cpu time    0.0070: real time    0.0070
     EDDAV:  cpu time    7.9638: real time    7.9727
 BZINTS: Fermi energy:  3.879554;156.000000 electrons
         Band energy:***********;  BLOECHL correction:  0.000000
       DOS:  cpu time    0.0060: real time    0.0065
    CHARGE:  cpu time    0.2510: real time    0.2504
    MIXING:  cpu time    0.0010: real time    0.0011
    --------------------------------------------
      LOOP:  cpu time    8.2587: real time    8.2704

 eigenvalue-minimisations  :  8932
 total energy-change (2. order) : 0.3387564E+02  (-0.7226304E+01)
 number of electron     155.9999995 magnetization 
 augmentation part      -25.2560517 magnetization 

 Broyden mixing:
  rms(total) = 0.39004E+00    rms(broyden)= 0.38965E+00
  rms(prec ) = 0.39121E+00
  weight for this iteration     100.00

 eigenvalues of (default mixing * dielectric matrix)
  average eigenvalue GAMMA=   1.3730
  2.4441  0.8374  0.8374

 Free energy of the ion-electron system (eV)
  ---------------------------------------------------
  alpha Z        PSCENC =       522.04194318
  Ewald energy   TEWEN  =     40526.31199986
  -Hartree energ DENC   =    -53807.16643923
  -exchange      EXHF   =         0.00000000
  -V(xc)+E(xc)   XCENC  =      -121.46932794
  PAW double counting   =     19258.80404455   -18490.55843279
  entropy T*S    EENTRO =         0.00000000
  eigenvalues    EBANDS =     -2296.39637708
  atomic energy  EATOM  =     14267.47281321
  Solvation  Ediel_sol  =         0.00000000
  ---------------------------------------------------
  free energy    TOTEN  =      -140.95977624 eV

  energy without entropy =     -140.95977624  energy(sigma->0) =     -140.95977624


--------------------------------------------------------------------------------------------------------




----------------------------------------- Iteration    1(   9)  ---------------------------------------


    POTLOK:  cpu time    0.0300: real time    0.0301
    SETDIJ:  cpu time    0.0070: real time    0.0071
     EDDAV:  cpu time    9.7195: real time    9.7319
 BZINTS: Fermi energy:  3.786786;156.000000 electrons
         Band energy:***********;  BLOECHL correction:  0.000000
       DOS:  cpu time    0.0070: real time    0.0065
    CHARGE:  cpu time    0.2540: real time    0.2547
    MIXING:  cpu time    0.0020: real time    0.0011
    --------------------------------------------
      LOOP:  cpu time   10.0195: real time   10.0339

 eigenvalue-minimisations  : 11088
 total energy-change (2. order) :-0.9517317E+00  (-0.1016815E+01)
 number of electron     155.9999995 magnetization 
 augmentation part      -25.1773923 magnetization 

 Broyden mixing:
  rms(total) = 0.10599E+01    rms(broyden)= 0.10599E+01
  rms(prec ) = 0.10604E+01
  weight for this iteration     100.00

 eigenvalues of (default mixing * dielectric matrix)
  average eigenvalue GAMMA=   1.1516
  2.2536  1.1903  0.7886  0.3741

 Free energy of the ion-electron system (eV)
  ---------------------------------------------------
  alpha Z        PSCENC =       522.04194318
  Ewald energy   TEWEN  =     40526.31199986
  -Hartree energ DENC   =    -53799.07603911
  -exchange      EXHF   =         0.00000000
  -V(xc)+E(xc)   XCENC  =      -121.54801598
  PAW double counting   =     19557.27932567   -18788.77278003
  entropy T*S    EENTRO =         0.00000000
  eigenvalues    EBANDS =     -2305.62075472
  atomic energy  EATOM  =     14267.47281321
  Solvation  Ediel_sol  =         0.00000000
  ---------------------------------------------------
  free energy    TOTEN  =      -141.91150791 eV

  energy without entropy =     -141.91150791  energy(sigma->0) =     -141.91150791


--------------------------------------------------------------------------------------------------------




----------------------------------------- Iteration    1(  10)  ---------------------------------------


    POTLOK:  cpu time    0.0300: real time    0.0312
    SETDIJ:  cpu time    0.0080: real time    0.0076
     EDDAV:  cpu time    8.6917: real time    8.8502
 BZINTS: Fermi energy:  3.812548;156.000000 electrons
         Band energy:***********;  BLOECHL correction:  0.000000
       DOS:  cpu time    0.0050: real time    0.0058
    CHARGE:  cpu time    0.2490: real time    0.2490
    MIXING:  cpu time    0.0010: real time    0.0012
    --------------------------------------------
      LOOP:  cpu time    8.9856: real time    9.1492

 eigenvalue-minimisations  : 10416
 total energy-change (2. order) : 0.1262391E-01  (-0.9573911E-02)
 number of electron     155.9999995 magnetization 
 augmentation part      -25.1748518 magnetization 

 Broyden mixing:
  rms(total) = 0.80584E+00    rms(broyden)= 0.80584E+00
  rms(prec ) = 0.80639E+00
  weight for this iteration     100.00

 eigenvalues of (default mixing * dielectric matrix)
  average eigenvalue GAMMA=   1.3125
  1.9976  1.9976  1.0929  0.7373  0.7373

 Free energy of the ion-electron system (eV)
  ---------------------------------------------------
  alpha Z        PSCENC =       522.04194318
  Ewald energy   TEWEN  =     40526.31199986
  -Hartree energ DENC   =    -53803.92463603
  -exchange      EXHF   =         0.00000000
  -V(xc)+E(xc)   XCENC  =      -121.41995050
  PAW double counting   =     19241.89590769   -18473.03576415
  entropy T*S    EENTRO =         0.00000000
  eigenvalues    EBANDS =     -2301.24119727
  atomic energy  EATOM  =     14267.47281321
  Solvation  Ediel_sol  =         0.00000000
  ---------------------------------------------------
  free energy    TOTEN  =      -141.89888400 eV

  energy without entropy =     -141.89888400  energy(sigma->0) =     -141.89888400


--------------------------------------------------------------------------------------------------------




----------------------------------------- Iteration    1(  11)  ---------------------------------------


    POTLOK:  cpu time    0.0320: real time    0.0317
    SETDIJ:  cpu time    0.0070: real time    0.0071
     EDDAV:  cpu time    9.5565: real time    9.5661
 BZINTS: Fermi energy:  4.037274;156.000000 electrons
         Band energy:***********;  BLOECHL correction:  0.000000
       DOS:  cpu time    0.0070: real time    0.0065
    CHARGE:  cpu time    0.2350: real time    0.2350
    MIXING:  cpu time    0.0010: real time    0.0012
    --------------------------------------------
      LOOP:  cpu time    9.8385: real time    9.8503

 eigenvalue-minimisations  : 10864
 total energy-change (2. order) : 0.4204892E-01  (-0.6999848E-02)
 number of electron     155.9999995 magnetization 
 augmentation part      -25.2122475 magnetization 

 Broyden mixing:
  rms(total) = 0.28876E+00    rms(broyden)= 0.28876E+00
  rms(prec ) = 0.28893E+00
  weight for this iteration     100.00

 eigenvalues of (default mixing * dielectric matrix)
  average eigenvalue GAMMA=   1.4674
  2.7095  2.7095  1.1868  0.7838  0.7838  0.6310

 Free energy of the ion-electron system (eV)
  ---------------------------------------------------
  alpha Z        PSCENC =       522.04194318
  Ewald energy   TEWEN  =     40526.31199986
  -Hartree energ DENC   =    -53819.12440338
  -exchange      EXHF   =         0.00000000
  -V(xc)+E(xc)   XCENC  =      -121.13346060
  PAW double counting   =     18553.37761878   -17783.37108257
  entropy T*S    EENTRO =         0.00000000
  eigenvalues    EBANDS =     -2287.43226357
  atomic energy  EATOM  =     14267.47281321
  Solvation  Ediel_sol  =         0.00000000
  ---------------------------------------------------
  free energy    TOTEN  =      -141.85683508 eV

  energy without entropy =     -141.85683508  energy(sigma->0) =     -141.85683508


--------------------------------------------------------------------------------------------------------




----------------------------------------- Iteration    1(  12)  ---------------------------------------


    POTLOK:  cpu time    0.0420: real time    0.0426
    SETDIJ:  cpu time    0.0080: real time    0.0080
     EDDAV:  cpu time    9.2456: real time    9.2539
 BZINTS: Fermi energy:  4.040835;156.000000 electrons
         Band energy:***********;  BLOECHL correction:  0.000000
       DOS:  cpu time    0.0070: real time    0.0065
    CHARGE:  cpu time    0.2290: real time    0.2293
    MIXING:  cpu time    0.0010: real time    0.0012
    --------------------------------------------
      LOOP:  cpu time    9.5326: real time    9.5443

 eigenvalue-minimisations  : 10444
 total energy-change (2. order) : 0.5578855E-02  (-0.2123500E-02)
 number of electron     155.9999995 magnetization 
 augmentation part      -25.2033261 magnetization 

 Broyden mixing:
  rms(total) = 0.38617E+00    rms(broyden)= 0.38617E+00
  rms(prec ) = 0.38618E+00
  weight for this iteration     100.00

 eigenvalues of (default mixing * dielectric matrix)
  average eigenvalue GAMMA=   1.2821
  2.4260  1.5974  1.5974  1.1459  0.8100  0.6989  0.6989

 Free energy of the ion-electron system (eV)
  ---------------------------------------------------
  alpha Z        PSCENC =       522.04194318
  Ewald energy   TEWEN  =     40526.31199986
  -Hartree energ DENC   =    -53826.21625963
  -exchange      EXHF   =         0.00000000
  -V(xc)+E(xc)   XCENC  =      -121.01660615
  PAW double counting   =     18288.70277507   -17517.78269676
  entropy T*S    EENTRO =         0.00000000
  eigenvalues    EBANDS =     -2281.36522501
  atomic energy  EATOM  =     14267.47281321
  Solvation  Ediel_sol  =         0.00000000
  ---------------------------------------------------
  free energy    TOTEN  =      -141.85125622 eV

  energy without entropy =     -141.85125622  energy(sigma->0) =     -141.85125622


--------------------------------------------------------------------------------------------------------




----------------------------------------- Iteration    1(  13)  ---------------------------------------


    POTLOK:  cpu time    0.0290: real time    0.0291
    SETDIJ:  cpu time    0.0070: real time    0.0072
     EDDAV:  cpu time    8.6947: real time    8.7009
 BZINTS: Fermi energy:  4.033681;156.000000 electrons
         Band energy:***********;  BLOECHL correction:  0.000000
       DOS:  cpu time    0.0070: real time    0.0065
    CHARGE:  cpu time    0.2570: real time    0.2570
    MIXING:  cpu time    0.0010: real time    0.0018
    --------------------------------------------
      LOOP:  cpu time    8.9966: real time    9.0050

 eigenvalue-minimisations  : 10108
 total energy-change (2. order) :-0.7962061E-04  (-0.3196067E-03)
 number of electron     155.9999995 magnetization 
 augmentation part      -25.2069916 magnetization 

[...]
  free energy    TOTEN  =        -2.78568017 eV

  energy without entropy =       -2.78568017


----------------------------------------- Iteration    3(  21)  ---------------------------------------


   POT+DIJ:  cpu time    0.0750: real time    0.0755
    HAMIL1:  cpu time    1.6418: real time    1.6426
    LRDIAG:  cpu time    0.3210: real time    0.3221
    LRDIIS:  cpu time    5.4132: real time    5.4152
    LRDIAG:  cpu time    0.3170: real time    0.3170
    MIXING:  cpu time    0.0020: real time    0.0023
    --------------------------------------------
      LOOP:  cpu time    8.3707: real time    8.3763

 Broyden mixing:
  rms(total) = 0.23601E-05    rms(broyden)= 0.23599E-05
  rms(prec ) = 0.23834E-05
  weight for this iteration     100.00

 eigenvalues of (default mixing * dielectric matrix)
  average eigenvalue GAMMA=   2.0861
  8.3688  4.8565  3.9589  3.3585  2.6300  2.6300  1.9527  1.9527  1.5780  0.9978
  0.9978  0.9755  0.9755  0.9071  0.8035  0.7149  0.6478  0.6551  0.6748

 Free energy of the ion-electron system (eV)
  ---------------------------------------------------
  -Hartree energ DENC   =        -1.74646128
  -V(xc)+E(xc)   XCENC  =         0.05178926
  PAW double counting   =         0.15956114       -0.15840492
  entropy T*S    EENTRO =         0.00000000
  eigenvalues    EBANDS =        -1.09201478
  ---------------------------------------------------
  free energy    TOTEN  =        -2.78553058 eV

  energy without entropy =       -2.78553058


----------------------------------------- Iteration    3(  22)  ---------------------------------------


   POT+DIJ:  cpu time    0.0750: real time    0.0752
    HAMIL1:  cpu time    1.6448: real time    1.6457
    LRDIAG:  cpu time    0.3230: real time    0.3224
    LRDIIS:  cpu time    5.5022: real time    5.5053
    LRDIAG:  cpu time    0.3160: real time    0.3166
    MIXING:  cpu time    0.0020: real time    0.0024
    --------------------------------------------
      LOOP:  cpu time    8.5037: real time    8.5106

 Broyden mixing:
  rms(total) = 0.54142E-06    rms(broyden)= 0.54105E-06
  rms(prec ) = 0.55122E-06
  weight for this iteration     100.00

 eigenvalues of (default mixing * dielectric matrix)
  average eigenvalue GAMMA=   2.0420
  8.3705  4.8497  4.0422  3.1828  2.8006  2.3939  2.1595  1.6269  1.6269  1.4793
  0.9977  0.9977  0.9705  0.9705  0.8764  0.8030  0.7148  0.6477  0.6551  0.6751

 Free energy of the ion-electron system (eV)
  ---------------------------------------------------
  -Hartree energ DENC   =        -1.74646016
  -V(xc)+E(xc)   XCENC  =         0.05178923
  PAW double counting   =         0.15956027       -0.15840416
  entropy T*S    EENTRO =         0.00000000
  eigenvalues    EBANDS =        -1.09194506
  ---------------------------------------------------
  free energy    TOTEN  =        -2.78545987 eV

  energy without entropy =       -2.78545987


------------------------ aborting loop because EDIFF is reached ----------------------------------------


 change of polarisation eV/A/(eV/A) component  3 :    -0.010     0.002     5.427
 dielectric tensor                  component  3 :    -0.004     0.001     3.059


--------------------------------------------------------------------------------------------------------


    FORLOC:  cpu time    0.0050: real time    0.0052
    FORNL :  cpu time    2.2007: real time    2.2010
    STRESS:  cpu time    4.7743: real time    4.7753
    FORCOR:  cpu time    0.0320: real time    0.0318
    OFIELD:  cpu time    0.0000: real time    0.0002

  Hirshfeld charges:
            ion         q(e)     
   ------------------------------
      1     W           0.285
      2     W           0.284
      3     W           0.284
      4     W           0.284
      5     W           0.284
      6     W           0.285
      7     Se         -0.142
      8     Se         -0.143
      9     Se         -0.142
     10     Se         -0.142
     11     Se         -0.142
     12     Se         -0.142
     13     Se         -0.142
     14     Se         -0.142
     15     Se         -0.142
     16     Se         -0.142
     17     Se         -0.143
     18     Se         -0.142

  Tkatchenko/Scheffler method for vdW energy calculation
  ---------------------------------------------------------------------------------------------

  Parameters of vdW forcefield:
            C6ts              R0ts           ALPHAts        RELVOL
            (au)              (au)            (au)                
   ---------------------------------------------------------------
   W         896.488          4.120         73.047          1.028
   W         902.564          4.125         73.294          1.032
   W         902.607          4.125         73.295          1.032
   W         902.607          4.125         73.295          1.032
   W         902.564          4.125         73.294          1.032
   W         896.488          4.120         73.047          1.028
   Se        213.931          4.057         25.233          1.009
   Se        209.424          4.042         24.966          0.999
   Se        213.940          4.057         25.233          1.009
   Se        213.925          4.057         25.232          1.009
   Se        213.940          4.057         25.233          1.009
   Se        213.939          4.057         25.233          1.009
   Se        213.940          4.057         25.233          1.009
   Se        213.940          4.057         25.233          1.009
   Se        213.925          4.057         25.232          1.009
   Se        213.940          4.057         25.233          1.009
   Se        209.424          4.042         24.966          0.999
   Se        213.931          4.057         25.233          1.009
  Edisp (eV):   -5.24887
    FORVDW:  cpu time    0.5989: real time    0.5992
    FORLOC:  cpu time    0.0060: real time    0.0052
    FORNL :  cpu time    2.2117: real time    2.2121
    STRESS:  cpu time    4.7853: real time    4.7866
    FORCOR:  cpu time    0.0300: real time    0.0296
    OFIELD:  cpu time    0.0000: real time    0.0002

  Hirshfeld charges:
            ion         q(e)     
   ------------------------------
      1     W           0.285
      2     W           0.284
      3     W           0.284
      4     W           0.284
      5     W           0.284
      6     W           0.285
      7     Se         -0.142
      8     Se         -0.143
      9     Se         -0.142
     10     Se         -0.142
     11     Se         -0.142
     12     Se         -0.142
     13     Se         -0.142
     14     Se         -0.142
     15     Se         -0.142
     16     Se         -0.142
     17     Se         -0.143
     18     Se         -0.142

  Tkatchenko/Scheffler method for vdW energy calculation
  ---------------------------------------------------------------------------------------------

  Parameters of vdW forcefield:
            C6ts              R0ts           ALPHAts        RELVOL
            (au)              (au)            (au)                
   ---------------------------------------------------------------
   W         896.488          4.120         73.047          1.028
   W         902.564          4.125         73.294          1.032
   W         902.607          4.125         73.295          1.032
   W         902.607          4.125         73.295          1.032
   W         902.564          4.125         73.294          1.032
   W         896.488          4.120         73.047          1.028
   Se        213.931          4.057         25.233          1.009
   Se        209.424          4.042         24.966          0.999
   Se        213.940          4.057         25.233          1.009
   Se        213.925          4.057         25.232          1.009
   Se        213.940          4.057         25.233          1.009
   Se        213.940          4.057         25.233          1.009
   Se        213.939          4.057         25.233          1.009
   Se        213.940          4.057         25.233          1.009
   Se        213.925          4.057         25.232          1.009
   Se        213.940          4.057         25.233          1.009
   Se        209.424          4.042         24.966          0.999
   Se        213.931          4.057         25.233          1.009
  Edisp (eV):   -5.24887
    FORVDW:  cpu time    0.5989: real time    0.5989
    FORNLD:  cpu time    4.4363: real time    4.4375

 PIEZOELECTRIC TENSOR FIELD DIRECTION 3  (e Angst)
 -----------------------------------------------------------------------------
     0.32349  0.00000 -0.00000           ( -0.00000  0.00000  0.00000)
     0.00000  0.32349 -0.00000           (  0.00000 -0.00000 -0.00000)
    -0.00000 -0.00000  0.43572           (  0.00000 -0.00000  0.00000)

 PIEZOELECTRIC TENSOR FIELD DIRECTION 3  (C/m^2)
 -----------------------------------------------------------------------------
     0.01087  0.00000 -0.00000
     0.00000  0.01087 -0.00000
    -0.00000 -0.00000  0.01464


      POSITION         DIRECTION 3           BORN EFFECTIVE CHARGE    (rigid.aug.   ionic)
 -----------------------------------------------------------------------------------------
     -0.00000      0.95811      8.77500     0.00000 -0.00000-52.79607 (  1.95585 14.00000)
      1.65950      1.91623     15.26500     0.00000  0.00000-19.97067 (  1.95582 14.00000)
     -0.00000      0.95811     21.75500    -0.00000 -0.00000 -3.94544 (  1.95582 14.00000)
      1.65950      1.91623     28.24500    -0.00000  0.00000 -3.94966 (  1.95582 14.00000)
     -0.00000      0.95811     34.73500    -0.00000  0.00000-19.89657 (  1.95582 14.00000)
      1.65950      1.91623     41.22500    -0.00000  0.00000-52.83855 (  1.95585 14.00000)
      1.65950      1.91623     10.45428     0.00000 -0.00000 -4.74071 (  1.12261  6.00000)
      1.65950      1.91623      7.09572     0.00000  0.00000  4.71761 (  1.12106  6.00000)
     -0.00000      0.95811     16.94428     0.00000 -0.00000 -0.97155 (  1.12267  6.00000)
     -0.00000      0.95811     13.58572     0.00000 -0.00000  1.94236 (  1.12265  6.00000)
      1.65950      1.91623     23.43428    -0.00000  0.00000  0.71845 (  1.12267  6.00000)
      1.65950      1.91623     20.07572     0.00000 -0.00000  1.70864 (  1.12267  6.00000)
     -0.00000      0.95811     29.92428     0.00000  0.00000  1.42036 (  1.12267  6.00000)
     -0.00000      0.95811     26.56572     0.00000 -0.00000  0.65119 (  1.12267  6.00000)
      1.65950      1.91623     36.41428    -0.00000 -0.00000  2.41003 (  1.12265  6.00000)
      1.65950      1.91623     33.05572    -0.00000 -0.00000 -0.62043 (  1.12267  6.00000)
     -0.00000      0.95811     42.90428    -0.00000 -0.00000  4.50332 (  1.12106  6.00000)
     -0.00000      0.95811     39.54572    -0.00000  0.00000 -5.29900 (  1.12261  6.00000)
 -----------------------------------------------------------------------------------------
    total drift (improves with k-points):   0.00000  0.00000*********




--------------------------------------------------------------------------------------------------------


  LATTYP: Found a hexagonal cell.
 ALAT       =     3.3190066245
 C/A-ratio  =    15.0647484797
  
  Lattice vectors:
  
 A1 = (   3.3190066245,   0.0000000000,   0.0000000000)
 A2 = (  -1.6595033122,   2.8743440521,   0.0000000000)
 A3 = (   0.0000000000,   0.0000000000,  50.0000000000)


Analysis of symmetry for initial positions (statically):
=====================================================================
 Subroutine PRICEL returns:
 Original cell was already a primitive cell.
 

 Routine SETGRP: Setting up the symmetry group for a 
 hexagonal supercell.


 Subroutine GETGRP returns: Found 12 space group operations
 (whereof  4 operations were pure point group operations)
 out of a pool of 24 trial point group operations.


The static configuration has the point symmetry C_2h.
 The point group associated with its full space group is D_3d.


Analysis of symmetry for dynamics (positions and initial velocities):
=====================================================================
 Subroutine PRICEL returns:
 Original cell was already a primitive cell.
 

 Routine SETGRP: Setting up the symmetry group for a 
 hexagonal supercell.


 Subroutine GETGRP returns: Found 12 space group operations
 (whereof  4 operations were pure point group operations)
 out of a pool of 24 trial point group operations.


The dynamic configuration has the point symmetry C_2h.
 The point group associated with its full space group is D_3d.


 Subroutine INISYM returns: Found 12 space group operations
 (whereof  4 operations are pure point group operations),
 and found     1 'primitive' translations



 MACROSCOPIC STATIC DIELECTRIC TENSOR (including local field effects in DFT)
 ------------------------------------------------------
          12.209890     0.000000     0.000000
           0.000000    12.209890    -0.000000
           0.000000     0.000000     3.058663
 ------------------------------------------------------



--------------------------------------------------------------------------------------------------------


  LATTYP: Found a hexagonal cell.
 ALAT       =     3.3190066245
 C/A-ratio  =    15.0647484797
  
  Lattice vectors:
  
 A1 = (   3.3190066245,   0.0000000000,   0.0000000000)
 A2 = (  -1.6595033122,   2.8743440521,   0.0000000000)
 A3 = (   0.0000000000,   0.0000000000,  50.0000000000)


Analysis of symmetry for initial positions (statically):
=====================================================================
 Subroutine PRICEL returns:
 Original cell was already a primitive cell.
 

 Routine SETGRP: Setting up the symmetry group for a 
 hexagonal supercell.


 Subroutine GETGRP returns: Found 12 space group operations
 (whereof  4 operations were pure point group operations)
 out of a pool of 24 trial point group operations.


The static configuration has the point symmetry C_2h.
 The point group associated with its full space group is D_3d.


Analysis of symmetry for dynamics (positions and initial velocities):
=====================================================================
 Subroutine PRICEL returns:
 Original cell was already a primitive cell.
 

 Routine SETGRP: Setting up the symmetry group for a 
 hexagonal supercell.


 Subroutine GETGRP returns: Found 12 space group operations
 (whereof  4 operations were pure point group operations)
 out of a pool of 24 trial point group operations.


The dynamic configuration has the point symmetry C_2h.
 The point group associated with its full space group is D_3d.


 Subroutine INISYM returns: Found 12 space group operations
 (whereof  4 operations are pure point group operations),
 and found     1 'primitive' translations



--------------------------------------------------------------------------------------------------------




 MACROSCOPIC STATIC DIELECTRIC TENSOR (including local field effects in DFT)
 ------------------------------------------------------
          12.209890     0.000000     0.000000
           0.000000    12.209890    -0.000000
           0.000000     0.000000     3.058663
 ------------------------------------------------------


 PIEZOELECTRIC TENSOR  for field in x, y, z        (e  Angst)
          XX          YY          ZZ          XY          YZ          ZX
  --------------------------------------------------------------------------------
  x    -0.00968     0.01361    -0.00160     0.00000     0.00006     0.00000
  y    -0.01583     0.02518     0.00384     0.00000     0.00029     0.00000
  z     0.32349     0.32349     0.43572     0.00000    -0.00000    -0.00000

 PIEZOELECTRIC TENSOR  for field in x, y, z        (C/m^2)
          XX          YY          ZZ          XY          YZ          ZX
  --------------------------------------------------------------------------------
  x     0.00000     0.00000     0.00000     0.00000     0.00000     0.00000
  y     0.00000     0.00000     0.00000     0.00000     0.00000     0.00000
  z     0.00000     0.00000     0.00000     0.00000     0.00000     0.00000
 
 BORN EFFECTIVE CHARGES (in e, cummulative output)
 -------------------------------------------------
 ion    1
    1    -1.14378    -0.00022     0.00003
    2    -0.00000    -1.14451    -0.00002
    3     0.00000    -0.00000   -52.79607
 ion    2
    1    -1.14971     0.00018     0.00000
    2     0.00000    -1.14894     0.00000
    3     0.00000     0.00000   -19.97067
 ion    3
    1    -1.14901    -0.00017    -0.00001
    2     0.00000    -1.14978     0.00001
    3    -0.00000    -0.00000    -3.94544
 ion    4
    1    -1.14901     0.00017     0.00001
    2     0.00000    -1.14825     0.00000
    3    -0.00000     0.00000    -3.94966
 ion    5
    1    -1.14971    -0.00018    -0.00000
    2     0.00000    -1.15049    -0.00001
    3    -0.00000     0.00000   -19.89657
 ion    6
    1    -1.14378     0.00022    -0.00003
    2     0.00000    -1.14308     0.00005
    3    -0.00000     0.00000   -52.83855
 ion    7
    1     0.58418    -0.00164     0.00013
    2     0.00000     0.58460     0.00104
    3     0.00000    -0.00000    -4.74071
 ion    8
    1     0.59181    -0.00157    -0.00007
    2    -0.00000     0.59220    -0.00065
    3     0.00000     0.00000     4.71761
 ion    9
    1     0.59143     0.00166     0.00014
    2     0.00000     0.59100     0.00102
    3     0.00000    -0.00000    -0.97155
 ion   10
    1     0.59209     0.00168    -0.00014
    2     0.00000     0.59169    -0.00102
    3     0.00000    -0.00000     1.94236
 ion   11
    1     0.59139    -0.00166     0.00014
    2     0.00000     0.59181     0.00103
    3    -0.00000     0.00000     0.71845
 ion   12
    1     0.59139    -0.00168    -0.00014
    2    -0.00000     0.59182    -0.00103
    3     0.00000    -0.00000     1.70864
 ion   13
    1     0.59139     0.00168     0.00014
    2     0.00000     0.59096     0.00102
    3     0.00000     0.00000     1.42036
 ion   14
    1     0.59139     0.00166    -0.00014
    2     0.00000     0.59099    -0.00102
    3     0.00000    -0.00000     0.65119
 ion   15
    1     0.59209    -0.00168     0.00014
    2     0.00000     0.59251     0.00102
    3    -0.00000    -0.00000     2.41003
 ion   16
    1     0.59143    -0.00166    -0.00014
    2     0.00000     0.59185    -0.00102
    3    -0.00000    -0.00000    -0.62043
 ion   17
    1     0.59181     0.00157     0.00007
    2    -0.00000     0.59145     0.00065
    3    -0.00000    -0.00000     4.50332
 ion   18
    1     0.58418     0.00164    -0.00013
    2    -0.00000     0.58378    -0.00103
    3    -0.00000     0.00000    -5.29900


--------------------------------------------------------------------------------------------------------


 writing wavefunctions
     LOOP+:  cpu time 1851.2536: real time 1855.1666
    4ORBIT:  cpu time    0.0000: real time    0.0000
 BZINTS: Fermi energy:  4.113479;156.000000 electrons
         Band energy:***********;  BLOECHL correction:  0.000000

 total amount of memory used by VASP on root node   152353. kBytes
========================================================================

   base      :      30000. kBytes
   nonl-proj :      97027. kBytes
   fftplans  :       1943. kBytes
   grid      :       7351. kBytes
   one-center:        584. kBytes
   wavefun   :      15448. kBytes
 
  
  
 General timing and accounting informations for this job:
 ========================================================
  
                  Total CPU time used (sec):     1854.729
                            User time (sec):     1817.456
                          System time (sec):       37.273
                         Elapsed time (sec):     1860.023
  
                   Maximum memory used (kb):      495892.
                   Average memory used (kb):           0.
  
                          Minor page faults:     11070510
                          Major page faults:           10
                 Voluntary context switches:         6546
