unknown system                          
           1
     3.319007    0.000000    0.000000
    -1.659503    2.874344    0.000000
     0.000000    0.000000   50.000000
   W    Se
   6  12
Direct configuration=     1
   0.16666667  0.33333333  0.17550000
   0.83333333  0.66666667  0.30530000
   0.16666667  0.33333333  0.43510000
   0.83333333  0.66666667  0.56490000
   0.16666667  0.33333333  0.69470000
   0.83333333  0.66666667  0.82450000
   0.83333333  0.66666667  0.20908553
   0.83333333  0.66666667  0.14191447
   0.16666667  0.33333333  0.33888553
   0.16666667  0.33333333  0.27171447
   0.83333333  0.66666667  0.46868553
   0.83333333  0.66666667  0.40151447
   0.16666667  0.33333333  0.59848553
   0.16666667  0.33333333  0.53131447
   0.83333333  0.66666667  0.72828553
   0.83333333  0.66666667  0.66111447
   0.16666667  0.33333333  0.85808553
   0.16666667  0.33333333  0.79091447
