   3   3   0   0
  0.1819092E+03  0.3550076E-09  0.3550076E-09  0.5000000E-08  0.5000000E-15
  1.000000000000000E-004
  CAR 
 unknown system                          
     11.21121626    -81.08539415  301     -2.86401683      1.00000000
    -81.085  0.0000E+00  0.0000E+00
    -80.778  0.0000E+00  0.0000E+00
    -80.470  0.0000E+00  0.0000E+00
    -80.162  0.0000E+00  0.0000E+00
    -79.855  0.0000E+00  0.0000E+00
    -79.547  0.0000E+00  0.0000E+00
    -79.239  0.0000E+00  0.0000E+00
    -78.932  0.0000E+00  0.0000E+00
    -78.624  0.0000E+00  0.0000E+00
    -78.316  0.0000E+00  0.0000E+00
    -78.009  0.0000E+00  0.0000E+00
    -77.701  0.0000E+00  0.0000E+00
    -77.394  0.0000E+00  0.0000E+00
    -77.086  0.0000E+00  0.0000E+00
    -76.778  0.0000E+00  0.2000E+01
    -76.471  0.0000E+00  0.2000E+01
    -76.163  0.0000E+00  0.2000E+01
    -75.855  0.0000E+00  0.2000E+01
    -75.548  0.0000E+00  0.2000E+01
    -75.240  0.0000E+00  0.2000E+01
    -74.932  0.0000E+00  0.2000E+01
    -74.625  0.0000E+00  0.2000E+01
    -74.317  0.0000E+00  0.2000E+01
    -74.009  0.0000E+00  0.2000E+01
    -73.702  0.0000E+00  0.2000E+01
    -73.394  0.0000E+00  0.2000E+01
    -73.086  0.0000E+00  0.2000E+01
    -72.779  0.0000E+00  0.2000E+01
    -72.471  0.0000E+00  0.2000E+01
    -72.163  0.0000E+00  0.2000E+01
    -71.856  0.0000E+00  0.2000E+01
    -71.548  0.0000E+00  0.2000E+01
    -71.240  0.0000E+00  0.2000E+01
    -70.933  0.0000E+00  0.2000E+01
    -70.625  0.0000E+00  0.2000E+01
    -70.317  0.0000E+00  0.2000E+01
    -70.010  0.0000E+00  0.2000E+01
    -69.702  0.0000E+00  0.2000E+01
    -69.394  0.0000E+00  0.2000E+01
    -69.087  0.0000E+00  0.2000E+01
    -68.779  0.0000E+00  0.2000E+01
    -68.472  0.0000E+00  0.2000E+01
    -68.164  0.0000E+00  0.2000E+01
    -67.856  0.0000E+00  0.2000E+01
    -67.549  0.0000E+00  0.2000E+01
    -67.241  0.0000E+00  0.2000E+01
    -66.933  0.0000E+00  0.2000E+01
    -66.626  0.0000E+00  0.2000E+01
    -66.318  0.0000E+00  0.2000E+01
    -66.010  0.0000E+00  0.2000E+01
    -65.703  0.0000E+00  0.2000E+01
    -65.395  0.0000E+00  0.2000E+01
    -65.087  0.0000E+00  0.2000E+01
    -64.780  0.0000E+00  0.2000E+01
    -64.472  0.0000E+00  0.2000E+01
    -64.164  0.0000E+00  0.2000E+01
    -63.857  0.0000E+00  0.2000E+01
    -63.549  0.0000E+00  0.2000E+01
    -63.241  0.0000E+00  0.2000E+01
    -62.934  0.0000E+00  0.2000E+01
    -62.626  0.0000E+00  0.2000E+01
    -62.318  0.0000E+00  0.2000E+01
    -62.011  0.0000E+00  0.2000E+01
    -61.703  0.0000E+00  0.2000E+01
    -61.395  0.0000E+00  0.2000E+01
    -61.088  0.0000E+00  0.2000E+01
    -60.780  0.0000E+00  0.2000E+01
    -60.472  0.0000E+00  0.2000E+01
    -60.165  0.0000E+00  0.2000E+01
    -59.857  0.0000E+00  0.2000E+01
    -59.550  0.0000E+00  0.2000E+01
    -59.242  0.0000E+00  0.2000E+01
    -58.934  0.0000E+00  0.2000E+01
    -58.627  0.0000E+00  0.2000E+01
    -58.319  0.0000E+00  0.2000E+01
    -58.011  0.0000E+00  0.2000E+01
    -57.704  0.0000E+00  0.2000E+01
    -57.396  0.0000E+00  0.2000E+01
    -57.088  0.0000E+00  0.2000E+01
    -56.781  0.0000E+00  0.2000E+01
    -56.473  0.0000E+00  0.2000E+01
    -56.165  0.0000E+00  0.2000E+01
    -55.858  0.0000E+00  0.2000E+01
    -55.550  0.0000E+00  0.2000E+01
    -55.242  0.0000E+00  0.2000E+01
    -54.935  0.0000E+00  0.2000E+01
    -54.627  0.0000E+00  0.2000E+01
    -54.319  0.0000E+00  0.2000E+01
    -54.012  0.0000E+00  0.2000E+01
    -53.704  0.0000E+00  0.2000E+01
    -53.396  0.0000E+00  0.2000E+01
    -53.089  0.0000E+00  0.2000E+01
    -52.781  0.0000E+00  0.2000E+01
    -52.473  0.0000E+00  0.2000E+01
    -52.166  0.0000E+00  0.2000E+01
    -51.858  0.0000E+00  0.2000E+01
    -51.550  0.0000E+00  0.2000E+01
    -51.243  0.0000E+00  0.2000E+01
    -50.935  0.0000E+00  0.2000E+01
    -50.628  0.0000E+00  0.2000E+01
    -50.320  0.0000E+00  0.2000E+01
    -50.012  0.0000E+00  0.2000E+01
    -49.705  0.0000E+00  0.2000E+01
    -49.397  0.0000E+00  0.2000E+01
    -49.089  0.0000E+00  0.2000E+01
    -48.782  0.0000E+00  0.2000E+01
    -48.474  0.0000E+00  0.2000E+01
    -48.166  0.0000E+00  0.2000E+01
    -47.859  0.0000E+00  0.2000E+01
    -47.551  0.0000E+00  0.2000E+01
    -47.243  0.0000E+00  0.2000E+01
    -46.936  0.0000E+00  0.2000E+01
    -46.628  0.0000E+00  0.2000E+01
    -46.320  0.0000E+00  0.2000E+01
    -46.013  0.0000E+00  0.2000E+01
    -45.705  0.0000E+00  0.2000E+01
    -45.397  0.0000E+00  0.2000E+01
    -45.090  0.0000E+00  0.2000E+01
    -44.782  0.0000E+00  0.2000E+01
    -44.474  0.0000E+00  0.2000E+01
    -44.167  0.0000E+00  0.2000E+01
    -43.859  0.0000E+00  0.2000E+01
    -43.551  0.0000E+00  0.2000E+01
    -43.244  0.0000E+00  0.2000E+01
    -42.936  0.0000E+00  0.2000E+01
    -42.628  0.0000E+00  0.2000E+01
    -42.321  0.0000E+00  0.2000E+01
    -42.013  0.0000E+00  0.2000E+01
    -41.706  0.0000E+00  0.2000E+01
    -41.398  0.0000E+00  0.2000E+01
    -41.090  0.3288E+02  0.3940E+01
    -40.783  0.0000E+00  0.8000E+01
    -40.475  0.0000E+00  0.8000E+01
    -40.167  0.0000E+00  0.8000E+01
    -39.860  0.0000E+00  0.8000E+01
    -39.552  0.0000E+00  0.8000E+01
    -39.244  0.0000E+00  0.8000E+01
    -38.937  0.0000E+00  0.8000E+01
    -38.629  0.0000E+00  0.8000E+01
    -38.321  0.0000E+00  0.8000E+01
    -38.014  0.0000E+00  0.8000E+01
    -37.706  0.0000E+00  0.8000E+01
    -37.398  0.0000E+00  0.8000E+01
    -37.091  0.0000E+00  0.8000E+01
    -36.783  0.0000E+00  0.8000E+01
    -36.475  0.0000E+00  0.8000E+01
    -36.168  0.0000E+00  0.8000E+01
    -35.860  0.0000E+00  0.8000E+01
    -35.552  0.0000E+00  0.8000E+01
    -35.245  0.0000E+00  0.8000E+01
    -34.937  0.0000E+00  0.8000E+01
    -34.629  0.0000E+00  0.8000E+01
    -34.322  0.0000E+00  0.8000E+01
    -34.014  0.0000E+00  0.8000E+01
    -33.706  0.0000E+00  0.8000E+01
    -33.399  0.0000E+00  0.8000E+01
    -33.091  0.0000E+00  0.8000E+01
    -32.784  0.0000E+00  0.8000E+01
    -32.476  0.0000E+00  0.8000E+01
    -32.168  0.0000E+00  0.8000E+01
    -31.861  0.0000E+00  0.8000E+01
    -31.553  0.0000E+00  0.8000E+01
    -31.245  0.0000E+00  0.8000E+01
    -30.938  0.0000E+00  0.8000E+01
    -30.630  0.0000E+00  0.8000E+01
    -30.322  0.0000E+00  0.8000E+01
    -30.015  0.0000E+00  0.8000E+01
    -29.707  0.0000E+00  0.8000E+01
    -29.399  0.0000E+00  0.8000E+01
    -29.092  0.0000E+00  0.8000E+01
    -28.784  0.0000E+00  0.8000E+01
    -28.476  0.0000E+00  0.8000E+01
    -28.169  0.0000E+00  0.8000E+01
    -27.861  0.0000E+00  0.8000E+01
    -27.553  0.0000E+00  0.8000E+01
    -27.246  0.0000E+00  0.8000E+01
    -26.938  0.0000E+00  0.8000E+01
    -26.630  0.0000E+00  0.8000E+01
    -26.323  0.0000E+00  0.8000E+01
    -26.015  0.0000E+00  0.8000E+01
    -25.707  0.0000E+00  0.8000E+01
    -25.400  0.0000E+00  0.8000E+01
    -25.092  0.0000E+00  0.8000E+01
    -24.784  0.0000E+00  0.8000E+01
    -24.477  0.0000E+00  0.8000E+01
    -24.169  0.0000E+00  0.8000E+01
    -23.861  0.0000E+00  0.8000E+01
    -23.554  0.0000E+00  0.8000E+01
    -23.246  0.0000E+00  0.8000E+01
    -22.939  0.0000E+00  0.8000E+01
    -22.631  0.0000E+00  0.8000E+01
    -22.323  0.0000E+00  0.8000E+01
    -22.016  0.0000E+00  0.8000E+01
    -21.708  0.0000E+00  0.8000E+01
    -21.400  0.0000E+00  0.8000E+01
    -21.093  0.0000E+00  0.8000E+01
    -20.785  0.0000E+00  0.8000E+01
    -20.477  0.0000E+00  0.8000E+01
    -20.170  0.0000E+00  0.8000E+01
    -19.862  0.0000E+00  0.8000E+01
    -19.554  0.0000E+00  0.8000E+01
    -19.247  0.0000E+00  0.8000E+01
    -18.939  0.0000E+00  0.8000E+01
    -18.631  0.0000E+00  0.8000E+01
    -18.324  0.0000E+00  0.8000E+01
    -18.016  0.0000E+00  0.8000E+01
    -17.708  0.0000E+00  0.8000E+01
    -17.401  0.0000E+00  0.8000E+01
    -17.093  0.0000E+00  0.8000E+01
    -16.785  0.0000E+00  0.8000E+01
    -16.478  0.0000E+00  0.8000E+01
    -16.170  0.0000E+00  0.8000E+01
    -15.862  0.4616E+00  0.8031E+01
    -15.555  0.5194E+00  0.8190E+01
    -15.247  0.5631E+00  0.8358E+01
    -14.939  0.6132E+00  0.8539E+01
    -14.632  0.1454E+01  0.8836E+01
    -14.324  0.1705E+01  0.9324E+01
    -14.017  0.2227E+01  0.9914E+01
    -13.709  0.2872E+01  0.1079E+02
    -13.401  0.2204E+01  0.1172E+02
    -13.094  0.0000E+00  0.1200E+02
    -12.786  0.0000E+00  0.1200E+02
    -12.478  0.0000E+00  0.1200E+02
    -12.171  0.0000E+00  0.1200E+02
    -11.863  0.0000E+00  0.1200E+02
    -11.555  0.0000E+00  0.1200E+02
    -11.248  0.0000E+00  0.1200E+02
    -10.940  0.0000E+00  0.1200E+02
    -10.632  0.0000E+00  0.1200E+02
    -10.325  0.0000E+00  0.1200E+02
    -10.017  0.0000E+00  0.1200E+02
     -9.709  0.0000E+00  0.1200E+02
     -9.402  0.0000E+00  0.1200E+02
     -9.094  0.0000E+00  0.1200E+02
     -8.786  0.7964E+00  0.1202E+02
     -8.479  0.1161E+01  0.1229E+02
     -8.171  0.1814E+01  0.1275E+02
     -7.863  0.1283E+01  0.1331E+02
     -7.556  0.4294E+01  0.1410E+02
     -7.248  0.8821E+00  0.1480E+02
     -6.940  0.2349E+01  0.1512E+02
     -6.633  0.4452E+01  0.1589E+02
     -6.325  0.8026E+00  0.1699E+02
     -6.017  0.2798E+01  0.1748E+02
     -5.710  0.2499E+01  0.1832E+02
     -5.402  0.3452E+01  0.1914E+02
     -5.095  0.1870E+01  0.1989E+02
     -4.787  0.2024E+01  0.2039E+02
     -4.479  0.3183E+01  0.2192E+02
     -4.172  0.3256E+01  0.2304E+02
     -3.864  0.2023E+01  0.2379E+02
     -3.556  0.3616E+01  0.2461E+02
     -3.249  0.1843E+01  0.2574E+02
     -2.941  0.1543E+00  0.2600E+02
     -2.633  0.0000E+00  0.2600E+02
     -2.326  0.0000E+00  0.2600E+02
     -2.018  0.0000E+00  0.2600E+02
     -1.710  0.5177E+00  0.2604E+02
     -1.403  0.3773E+01  0.2663E+02
     -1.095  0.1245E+01  0.2775E+02
     -0.787  0.3831E+01  0.2914E+02
     -0.480  0.3047E+01  0.3049E+02
     -0.172  0.1807E+01  0.3123E+02
      0.136  0.2214E+01  0.3171E+02
      0.443  0.1281E+01  0.3216E+02
      0.751  0.3431E+01  0.3278E+02
      1.059  0.1706E+01  0.3414E+02
      1.366  0.1627E+01  0.3474E+02
      1.674  0.1572E+01  0.3529E+02
      1.982  0.3006E+01  0.3599E+02
      2.289  0.3705E+01  0.3699E+02
      2.597  0.3703E+01  0.3806E+02
      2.905  0.5203E+01  0.3961E+02
      3.212  0.6374E+01  0.4145E+02
      3.520  0.5771E+01  0.4331E+02
      3.827  0.7007E+01  0.4522E+02
      4.135  0.6430E+01  0.4738E+02
      4.443  0.4589E+01  0.4905E+02
      4.750  0.4609E+01  0.5065E+02
      5.058  0.4775E+01  0.5207E+02
      5.366  0.4347E+01  0.5342E+02
      5.673  0.2695E+01  0.5456E+02
      5.981  0.1539E+01  0.5523E+02
      6.289  0.1314E+01  0.5573E+02
      6.596  0.3964E+00  0.5593E+02
      6.904  0.8242E-01  0.5600E+02
      7.212  0.0000E+00  0.5600E+02
      7.519  0.0000E+00  0.5600E+02
      7.827  0.0000E+00  0.5600E+02
      8.135  0.0000E+00  0.5600E+02
      8.442  0.0000E+00  0.5600E+02
      8.750  0.0000E+00  0.5600E+02
      9.058  0.0000E+00  0.5600E+02
      9.365  0.0000E+00  0.5600E+02
      9.673  0.0000E+00  0.5600E+02
      9.981  0.0000E+00  0.5600E+02
     10.288  0.0000E+00  0.5600E+02
     10.596  0.0000E+00  0.5600E+02
     10.904  0.0000E+00  0.5600E+02
     11.211  0.0000E+00  0.5600E+02
