       N       E                     dE             d eps       ncg     rms          rms(c)
DAV:   1     0.821886399216E+02    0.82189E+02   -0.10273E+04  3948   0.428E+02
DAV:   2    -0.216470062014E+02   -0.10384E+03   -0.10299E+03  3080   0.114E+02
DAV:   3    -0.233085660720E+02   -0.16616E+01   -0.16616E+01  2772   0.178E+01
DAV:   4    -0.233242895417E+02   -0.15723E-01   -0.15723E-01  3248   0.156E+00
DAV:   5    -0.233245352804E+02   -0.24574E-03   -0.24574E-03  2968   0.120E-01    0.780E+01
DAV:   6    -0.219618714441E+02    0.13627E+01   -0.20523E+01  2072   0.101E+01    0.677E+01
DAV:   7    -0.299960655595E+02   -0.80342E+01   -0.10730E+02  2744   0.210E+01    0.833E+01
DAV:   8    -0.214633455016E+02    0.85327E+01   -0.62527E+01  3220   0.152E+01    0.869E-01
DAV:   9    -0.214994593979E+02   -0.36114E-01   -0.40503E-01  2296   0.246E+00    0.436E+00
DAV:  10    -0.214991712130E+02    0.28818E-03   -0.76739E-03  3360   0.365E-01    0.127E+00
DAV:  11    -0.214972998161E+02    0.18714E-02   -0.52925E-03  3752   0.214E-01    0.650E-01
DAV:  12    -0.214969244263E+02    0.37539E-03   -0.14386E-03  3724   0.794E-02    0.657E-02
DAV:  13    -0.214967753833E+02    0.14904E-03   -0.16070E-04  3276   0.330E-02    0.200E-02
DAV:  14    -0.214968007481E+02   -0.25365E-04   -0.10761E-04  2828   0.203E-02    0.861E-02
DAV:  15    -0.214968889734E+02   -0.88225E-04   -0.91070E-05  2604   0.207E-02    0.652E-02
DAV:  16    -0.214969902072E+02   -0.10123E-03   -0.74241E-06  2548   0.762E-03    0.193E-02
DAV:  17    -0.214970721059E+02   -0.81899E-04   -0.57668E-06  2548   0.651E-03    0.139E-02
DAV:  18    -0.214971083055E+02   -0.36200E-04   -0.10037E-06  2520   0.231E-03    0.303E-03
DAV:  19    -0.214971374009E+02   -0.29095E-04   -0.87301E-07  2520   0.176E-03    0.564E-03
DAV:  20    -0.214971488461E+02   -0.11445E-04   -0.18944E-07  2744   0.896E-04    0.121E-03
DAV:  21    -0.214971542812E+02   -0.54351E-05   -0.57818E-08  2716   0.523E-04    0.197E-03
DAV:  22    -0.214971583135E+02   -0.40322E-05   -0.67604E-08  2520   0.557E-04    0.243E-04
DAV:  23    -0.214971593949E+02   -0.10814E-05   -0.82255E-09  2968   0.191E-04    0.963E-04
DAV:  24    -0.214971601927E+02   -0.79787E-06   -0.52358E-09  2464   0.200E-04    0.774E-05
DAV:  25    -0.214971604380E+02   -0.24526E-06   -0.36970E-10  2464   0.925E-05    0.154E-04
DAV:  26    -0.214971607282E+02   -0.29022E-06   -0.34474E-10  2352   0.115E-04    0.925E-05
DAV:  27    -0.214971607723E+02   -0.44059E-07    0.18072E-11  2912   0.301E-05    0.872E-06
DAV:  28    -0.214971607989E+02   -0.26668E-07   -0.70592E-12  2492   0.323E-05    0.232E-05
DAV:  29    -0.214971608014E+02   -0.24488E-08    0.51602E-11  2940   0.735E-06
   1 F= -.22171278E+02 E0= -.22171278E+02  d E =0.000000E+00
 Linear response reoptimize wavefunctions
DAV:   1    -0.214971608029E+02    0.67412E+00    0.45627E-11  2632   0.103E-05
DAV:   2    -0.214971608029E+02    0.00000E+00    0.40403E-11  2968   0.813E-07
 Linear response G [H, r] |phi>, progress :
  Direction:   1
       N       E                     dE             d eps       ncg     rms
RMM:   1    -0.126172540243E+03   -0.12617E+03   -0.14832E+03  3006   0.345E+02
RMM:   2    -0.134239316455E+03   -0.80668E+01   -0.15766E+02  4595   0.321E+01
RMM:   3    -0.135382417027E+03   -0.11431E+01   -0.13190E+01  4771   0.768E+00
RMM:   4    -0.135500415150E+03   -0.11800E+00   -0.55664E-01  5148   0.153E+00
RMM:   5    -0.135505746038E+03   -0.53309E-02   -0.39679E-02  5153   0.387E-01
RMM:   6    -0.135506297372E+03   -0.55133E-03   -0.27692E-03  5195   0.923E-02
RMM:   7    -0.135506285299E+03    0.12074E-04   -0.18190E-04  5130   0.269E-02
RMM:   8    -0.135506296267E+03   -0.10969E-04   -0.39690E-05  5102   0.753E-03
RMM:   9    -0.135506294947E+03    0.13208E-05   -0.85994E-06  5019   0.251E-03
RMM:  10    -0.135506294679E+03    0.26769E-06   -0.35425E-06  4957   0.904E-04
RMM:  11    -0.135506294570E+03    0.10854E-06   -0.22136E-06  4743   0.486E-04
RMM:  12    -0.135506294479E+03    0.91774E-07   -0.12215E-06  4466   0.356E-04
RMM:  13    -0.135506294433E+03    0.45511E-07   -0.75779E-07  4202   0.324E-04
RMM:  14    -0.135506294451E+03   -0.17995E-07   -0.93478E-07  3925   0.316E-04
RMM:  15    -0.135506294419E+03    0.31928E-07   -0.62410E-07  3772   0.314E-04
 Linear response G [H, r] |phi>, progress :
  Direction:   2
       N       E                     dE             d eps       ncg     rms
RMM:   1    -0.121327311443E+03   -0.12133E+03   -0.15345E+03  3137   0.343E+02
RMM:   2    -0.142180944126E+03   -0.20854E+02   -0.15242E+02  4497   0.316E+01
RMM:   3    -0.143403734625E+03   -0.12228E+01   -0.12495E+01  4752   0.741E+00
RMM:   4    -0.143534319101E+03   -0.13058E+00   -0.50262E-01  5128   0.145E+00
RMM:   5    -0.143540636515E+03   -0.63174E-02   -0.35760E-02  5166   0.358E-01
RMM:   6    -0.143541250085E+03   -0.61357E-03   -0.19167E-03  5174   0.800E-02
RMM:   7    -0.143541226508E+03    0.23577E-04    0.33521E-05  5086   0.229E-02
RMM:   8    -0.143541250113E+03   -0.23605E-04   -0.51885E-06  5039   0.610E-03
RMM:   9    -0.143541249192E+03    0.92092E-06    0.13473E-05  4949   0.204E-03
RMM:  10    -0.143541250759E+03   -0.15665E-05   -0.13674E-06  4951   0.771E-04
RMM:  11    -0.143541250561E+03    0.19766E-06    0.61882E-07  4767   0.458E-04
RMM:  12    -0.143541250671E+03   -0.11031E-06   -0.49239E-07  4417   0.361E-04
RMM:  13    -0.143541250676E+03   -0.47233E-08   -0.55261E-07  4100   0.342E-04
RMM:  14    -0.143541250696E+03   -0.20446E-07   -0.74763E-07  3849   0.336E-04
 Linear response G [H, r] |phi>, progress :
  Direction:   3
       N       E                     dE             d eps       ncg     rms
RMM:   1    -0.130523469251E+03   -0.13052E+03   -0.16211E+03  3001   0.330E+02
RMM:   2    -0.140786638107E+03   -0.10263E+02   -0.14051E+02  4524   0.301E+01
RMM:   3    -0.141780742861E+03   -0.99410E+00   -0.65085E+00  4746   0.645E+00
RMM:   4    -0.141835556616E+03   -0.54814E-01   -0.32683E-01  4975   0.126E+00
RMM:   5    -0.141836819532E+03   -0.12629E-02   -0.20098E-02  5050   0.328E-01
RMM:   6    -0.141836960274E+03   -0.14074E-03   -0.11180E-03  5074   0.750E-02
RMM:   7    -0.141836964510E+03   -0.42358E-05   -0.10303E-04  5028   0.219E-02
RMM:   8    -0.141836965966E+03   -0.14565E-05   -0.80391E-06  4918   0.528E-03
RMM:   9    -0.141836965960E+03    0.62595E-08   -0.99206E-07  4816   0.177E-03
RMM:  10    -0.141836966006E+03   -0.46527E-07   -0.23396E-07  4787   0.590E-04
RMM:  11    -0.141836965999E+03    0.70592E-08   -0.58308E-08  4536   0.322E-04
 Linear response to external field (no local field effect), progress :
  Direction:   1
       N       E                     dE             d eps       ncg     rms          rms(c)
RMM:   1    -0.260385645523E+01   -0.26039E+01   -0.15460E+01  5365   0.514E+00
RMM:   2    -0.383834447472E+01   -0.12345E+01   -0.15018E-01  4655   0.125E+00
RMM:   3    -0.384787674898E+01   -0.95323E-02   -0.12804E-02  4934   0.272E-01
RMM:   4    -0.384823578676E+01   -0.35904E-03   -0.87370E-04  5004   0.709E-02
RMM:   5    -0.384825655727E+01   -0.20771E-04   -0.82386E-05  4946   0.202E-02
RMM:   6    -0.384825800923E+01   -0.14520E-05   -0.71043E-06  4851   0.587E-03
RMM:   7    -0.384825808089E+01   -0.71654E-07   -0.59341E-07  4725   0.172E-03
RMM:   8    -0.384825808235E+01   -0.14616E-08   -0.86382E-08  4598   0.514E-04
 Linear response to external field (no local field effect), progress :
  Direction:   2
       N       E                     dE             d eps       ncg     rms          rms(c)
RMM:   1    -0.285979496577E+01   -0.28598E+01   -0.17090E+01  5381   0.531E+00
RMM:   2    -0.384559552693E+01   -0.98580E+00   -0.16240E-01  4677   0.127E+00
RMM:   3    -0.385588286007E+01   -0.10287E-01   -0.14745E-02  4851   0.288E-01
RMM:   4    -0.385628839138E+01   -0.40553E-03   -0.97134E-04  5021   0.737E-02
RMM:   5    -0.385631634573E+01   -0.27954E-04   -0.94357E-05  4966   0.209E-02
RMM:   6    -0.385631815073E+01   -0.18050E-05   -0.56077E-06  4891   0.553E-03
RMM:   7    -0.385631828725E+01   -0.13653E-06   -0.47333E-07  4703   0.165E-03
RMM:   8    -0.385631830024E+01   -0.12990E-07   -0.25326E-08  4589   0.479E-04
RMM:   9    -0.385631830226E+01   -0.20130E-08    0.24129E-11  4412   0.149E-04
 Linear response to external field (no local field effect), progress :
  Direction:   3
       N       E                     dE             d eps       ncg     rms          rms(c)
RMM:   1    -0.156093220903E+01   -0.15609E+01   -0.63847E+00  5341   0.475E+00
RMM:   2    -0.184794545945E+01   -0.28701E+00   -0.11791E-01  4360   0.105E+00
RMM:   3    -0.185218233222E+01   -0.42369E-02   -0.84058E-03  4766   0.242E-01
RMM:   4    -0.185235578902E+01   -0.17346E-03   -0.61912E-04  4887   0.611E-02
RMM:   5    -0.185236446651E+01   -0.86775E-05   -0.58419E-05  4813   0.186E-02
RMM:   6    -0.185236557272E+01   -0.11062E-05   -0.59039E-06  4691   0.552E-03
RMM:   7    -0.185236567705E+01   -0.10434E-06   -0.49014E-07  4559   0.164E-03
RMM:   8    -0.185236568982E+01   -0.12763E-07   -0.25616E-08  4452   0.481E-04
RMM:   9    -0.185236569148E+01   -0.16662E-08    0.31592E-09  4117   0.158E-04
 Linear response to external field, progress :
  Direction:   1
       N       E                     dE             d eps       ncg     rms          rms(c)
RMM:   1    -0.272036413271E+01   -0.27204E+01   -0.16160E+01 23768   0.516E+00
RMM:   2    -0.384213554407E+01   -0.11218E+01   -0.16034E-01 20729   0.124E+00    0.315E+00
RMM:   3    -0.376840594020E+01    0.73730E-01   -0.90910E-02 19544   0.120E+00    0.181E+00
RMM:   4    -0.385372909324E+01   -0.85323E-01   -0.89856E-02 18570   0.120E+00    0.478E-01
RMM:   5    -0.388239907488E+01   -0.28670E-01   -0.66785E-04 19989   0.276E-01    0.499E-02
RMM:   6    -0.388507240490E+01   -0.26733E-02   -0.32744E-04 20984   0.526E-02    0.305E-02
RMM:   7    -0.388638737629E+01   -0.13150E-02   -0.10928E-04 21304   0.185E-02    0.162E-02
RMM:   8    -0.388760283574E+01   -0.12155E-02   -0.14804E-04 19404   0.114E-02    0.325E-03
RMM:   9    -0.388786524867E+01   -0.26241E-03    0.54305E-05 20472   0.403E-03    0.163E-03
RMM:  10    -0.388798852887E+01   -0.12328E-03    0.14737E-05 19727   0.189E-03    0.496E-04
RMM:  11    -0.388802536326E+01   -0.36834E-04   -0.88577E-07 20295   0.688E-04    0.141E-04
RMM:  12    -0.388803110256E+01   -0.57393E-05    0.24990E-07 20514   0.186E-04    0.466E-05
RMM:  13    -0.388803066985E+01    0.43271E-06    0.16831E-07 19255   0.610E-05    0.189E-05
RMM:  14    -0.388803038183E+01    0.28802E-06    0.82124E-09 13761   0.259E-05    0.432E-06
 Linear response to external field, progress :
  Direction:   2
       N       E                     dE             d eps       ncg     rms          rms(c)
RMM:   1    -0.273776452643E+01   -0.27378E+01   -0.16334E+01 13153   0.516E+00
RMM:   2    -0.384188534807E+01   -0.11041E+01   -0.15703E-01 11460   0.125E+00    0.315E+00
RMM:   3    -0.376781535934E+01    0.74070E-01   -0.85947E-02 10906   0.120E+00    0.181E+00
RMM:   4    -0.385036676629E+01   -0.82551E-01   -0.54194E-02 10342   0.120E+00    0.474E-01
RMM:   5    -0.388218929175E+01   -0.31823E-01   -0.42345E-03 11178   0.275E-01    0.594E-02
RMM:   6    -0.388491709216E+01   -0.27278E-02   -0.51005E-04 11656   0.537E-02    0.350E-02
RMM:   7    -0.388597383234E+01   -0.10567E-02    0.38396E-04 11955   0.179E-02    0.200E-02
RMM:   8    -0.388754022819E+01   -0.15664E-02    0.26340E-05 10552   0.138E-02    0.574E-03
RMM:   9    -0.388786845149E+01   -0.32822E-03   -0.81223E-05 11281   0.441E-03    0.204E-03
RMM:  10    -0.388796836071E+01   -0.99909E-04   -0.11182E-05 11269   0.175E-03    0.128E-03
RMM:  11    -0.388800999922E+01   -0.41639E-04   -0.87398E-06 11094   0.742E-04    0.166E-04
RMM:  12    -0.388801580143E+01   -0.58022E-05   -0.25112E-07 11472   0.205E-04    0.643E-05
RMM:  13    -0.388801642136E+01   -0.61993E-06    0.24929E-07 10819   0.707E-05    0.227E-05
RMM:  14    -0.388801568555E+01    0.73580E-06   -0.53350E-09  7997   0.276E-05    0.120E-05
RMM:  15    -0.388801568251E+01    0.30475E-08   -0.97886E-10  7069   0.261E-05    0.376E-06
 Linear response to external field, progress :
  Direction:   3
       N       E                     dE             d eps       ncg     rms          rms(c)
RMM:   1    -0.156093220903E+01   -0.15609E+01   -0.63847E+00  5341   0.475E+00
RMM:   2    -0.184794545945E+01   -0.28701E+00   -0.11791E-01  4360   0.105E+00    0.283E+00
RMM:   3    -0.383502178594E+00    0.14644E+01   -0.20994E+00  4013   0.281E+00    0.141E+00
RMM:   4    -0.251066038455E+00    0.13244E+00   -0.90903E-02  4144   0.885E-01    0.481E-01
RMM:   5    -0.227144857076E+00    0.23921E-01   -0.47969E-02  3981   0.584E-01    0.136E-01
RMM:   6    -0.224680686868E+00    0.24642E-02   -0.22410E-03  4101   0.146E-01    0.103E-01
RMM:   7    -0.222989354875E+00    0.16913E-02   -0.99688E-04  3571   0.895E-02    0.355E-02
RMM:   8    -0.222691353091E+00    0.29800E-03   -0.94467E-04  3744   0.591E-02    0.175E-02
RMM:   9    -0.222732050846E+00   -0.40698E-04   -0.61107E-04  3537   0.350E-02    0.985E-03
RMM:  10    -0.223055047262E+00   -0.32300E-03   -0.27660E-04  3664   0.284E-02    0.461E-03
RMM:  11    -0.223244093998E+00   -0.18905E-03   -0.97603E-05  3935   0.167E-02    0.274E-03
RMM:  12    -0.223346206236E+00   -0.10211E-03   -0.54143E-05  3776   0.116E-02    0.164E-03
RMM:  13    -0.223363505889E+00   -0.17300E-04   -0.54147E-06  4136   0.603E-03    0.823E-04
RMM:  14    -0.223362923028E+00    0.58286E-06   -0.46867E-06  4308   0.259E-03    0.601E-04
RMM:  15    -0.223351199547E+00    0.11723E-04   -0.37392E-07  3766   0.287E-03    0.322E-04
RMM:  16    -0.223342580534E+00    0.86190E-05   -0.13624E-06  4001   0.186E-03    0.181E-04
RMM:  17    -0.223337076972E+00    0.55036E-05    0.18155E-06  3946   0.120E-03    0.101E-04
RMM:  18    -0.223336411499E+00    0.66547E-06   -0.19090E-07  4285   0.402E-04    0.580E-05
RMM:  19    -0.223336924796E+00   -0.51330E-06    0.29006E-07  4066   0.257E-04    0.444E-05
RMM:  20    -0.223337534909E+00   -0.61011E-06   -0.10974E-07  3990   0.175E-04    0.158E-05
RMM:  21    -0.223337430576E+00    0.10433E-06   -0.44896E-08  3571   0.905E-05    0.830E-06
