 vasp.5.4.1 24Jun15 (build Apr 13 2016 13:07:19) complex                        
  
 executed on           IFC91_ompi date 2019.09.14  02:26:50
 running on   28 total cores
 distrk:  each k-point on   28 cores,    1 groups
 distr:  one band on NCORES_PER_BAND=   1 cores,   28 groups


--------------------------------------------------------------------------------------------------------


 INCAR:
 POTCAR:    PAW_PBE W_sv_GW 23Mar2010             
 POTCAR:    PAW_PBE Te_GW 22Mar2012               

 ----------------------------------------------------------------------------- 
|                                                                             |
|           W    W    AA    RRRRR   N    N  II  N    N   GGGG   !!!           |
|           W    W   A  A   R    R  NN   N  II  NN   N  G    G  !!!           |
|           W    W  A    A  R    R  N N  N  II  N N  N  G       !!!           |
|           W WW W  AAAAAA  RRRRR   N  N N  II  N  N N  G  GGG   !            |
|           WW  WW  A    A  R   R   N   NN  II  N   NN  G    G                |
|           W    W  A    A  R    R  N    N  II  N    N   GGGG   !!!           |
|                                                                             |
|      For optimal performance we recommend to set                            |
|        NCORE= 4 - approx SQRT( number of cores)                             |
|      NCORE specifies how many cores store one orbital (NPAR=cpu/NCORE).     |
|      This setting can  greatly improve the performance of VASP for DFT.     |
|      The default, NPAR=number of cores might be grossly inefficient         |
|      on modern multi-core architectures or massively parallel machines.     |
|      Do your own testing !!!!                                               |
|      Unfortunately you need to use the default for GW and RPA calculations. |
|      (for HF NCORE is supported but not extensively tested yet)             |
|                                                                             |
 ----------------------------------------------------------------------------- 

 POTCAR:    PAW_PBE W_sv_GW 23Mar2010             
   VRHFIN =W: 5p6s5d                                                            
   LEXCH  = PE                                                                  
   EATOM  =  1863.8917 eV,  136.9922 Ry                                         
                                                                                
   TITEL  = PAW_PBE W_sv_GW 23Mar2010                                           
   LULTRA =        F    use ultrasoft PP ?                                      
   IUNSCR =        1    unscreen: 0-lin 1-nonlin 2-no                           
   RPACOR =    1.500    partial core radius                                     
   POMASS =  183.850; ZVAL   =   14.000    mass and valenz                      
   RCORE  =    2.300    outmost cutoff radius                                   
   RWIGS  =    2.600; RWIGS  =    1.376    wigner-seitz radius (au A)           
   ENMAX  =  317.132; ENMIN  =  237.849 eV                                      
   RCLOC  =    1.609    cutoff for local pot                                    
   LCOR   =        T    correct aug charges                                     
   LPAW   =        T    paw PP                                                  
   EAUG   =  807.757                                                            
   DEXC   =    0.000                                                            
   RMAX   =    2.349    core radius for proj-oper                               
   RAUG   =    1.300    factor for augmentation sphere                          
   RDEP   =    2.382    radius for radial grids                                 
   RDEPT  =    1.832    core radius for aug-charge                              
                                                                                
   Atomic configuration                                                         
   14 entries                                                                   
     n  l   j            E        occ.                                          
     1  0  0.50    -69464.1497   2.0000                                         
     2  0  0.50    -11984.7400   2.0000                                         
     2  1  1.50    -10478.3405   6.0000                                         
     3  0  0.50     -2757.5605   2.0000                                         
     3  1  1.50     -2311.6706   6.0000                                         
     3  2  2.50     -1799.5973  10.0000                                         
     4  0  0.50      -566.1609   2.0000                                         
     4  1  1.50      -419.9482   6.0000                                         
     4  2  2.50      -234.8191  10.0000                                         
     4  3  3.50       -29.7363  14.0000                                         
     5  0  0.50       -75.5905   2.0000                                         
     5  1  1.50       -39.9756   6.0000                                         
     5  2  2.50        -2.4479   6.0000                                         
     5  3  2.50        -1.3606   0.0000                                         
   Description                                                                  
     l       E           TYP  RCUT    TYP  RCUT                                 
     0    -75.5905419     23  1.500                                             
     0    -76.9511245     23  1.500                                             
     0    108.8466080     23  1.500                                             
     1    -39.9756040     23  1.800                                             
     1     68.0291300     23  1.800                                             
     2     -2.4478587     23  2.150                                             
     2     -0.0030619     23  2.150                                             
     3      4.0817478     23  2.300                                             
  local pseudopotential read in
  partial core-charges read in
  partial kinetic energy density read in
  kinetic energy density of atom read in
  atomic valenz-charges read in
  non local Contribution for L=           0  read in
    real space projection operators read in
  non local Contribution for L=           0  read in
    real space projection operators read in
  non local Contribution for L=           0  read in
    real space projection operators read in
  non local Contribution for L=           1  read in
    real space projection operators read in
  non local Contribution for L=           1  read in
    real space projection operators read in
  non local Contribution for L=           2  read in
    real space projection operators read in
  non local Contribution for L=           2  read in
    real space projection operators read in
  non local Contribution for L=           3  read in
    real space projection operators read in
    PAW grid and wavefunctions read in
 
   number of l-projection  operators is LMAX  =           8
   number of lm-projection operators is LMMAX =          26
 
 POTCAR:    PAW_PBE Te_GW 22Mar2012               
   VRHFIN =Te: s2p4                                                             
   LEXCH  = PE                                                                  
   EATOM  =   223.2721 eV,   16.4100 Ry                                         
                                                                                
   TITEL  = PAW_PBE Te_GW 22Mar2012                                             
   LULTRA =        F    use ultrasoft PP ?                                      
   IUNSCR =        1    unscreen: 0-lin 1-nonlin 2-no                           
   RPACOR =    2.200    partial core radius                                     
   POMASS =  127.600; ZVAL   =    6.000    mass and valenz                      
   RCORE  =    2.600    outmost cutoff radius                                   
   RWIGS  =    2.900; RWIGS  =    1.535    wigner-seitz radius (au A)           
   ENMAX  =  174.982; ENMIN  =  131.236 eV                                      
   ICORE  =        3    local potential                                         
   LCOR   =        T    correct aug charges                                     
   LPAW   =        T    paw PP                                                  
   EAUG   =  368.792                                                            
   DEXC   =    0.000                                                            
   RMAX   =    2.665    core radius for proj-oper                               
   RAUG   =    1.300    factor for augmentation sphere                          
   RDEP   =    2.724    radius for radial grids                                 
   RDEPT  =    2.174    core radius for aug-charge                              
                                                                                
   Atomic configuration                                                         
   13 entries                                                                   
     n  l   j            E        occ.                                          
     1  0  0.50    -31621.2075   2.0000                                         
     2  0  0.50     -4848.7941   2.0000                                         
     2  1  1.50     -4352.1960   6.0000                                         
     3  0  0.50      -964.9612   2.0000                                         
     3  1  1.50      -803.6179   6.0000                                         
     3  2  2.50      -559.8710  10.0000                                         
     4  0  0.50      -164.3522   2.0000                                         
     4  1  1.50      -114.3756   6.0000                                         
     4  2  2.50       -41.6483  10.0000                                         
     5  0  0.50       -15.1072   2.0000                                         
     5  1  0.50        -5.9526   4.0000                                         
     5  2  1.50        -6.8029   0.0000                                         
     4  3  2.50        -6.8029   0.0000                                         
   Description                                                                  
     l       E           TYP  RCUT    TYP  RCUT                                 
     0    -15.1072389     23  2.300                                             
     0     68.0291300     23  2.300                                             
     1     -5.9526306     23  2.300                                             
     1     95.2407820     23  2.300                                             
     2      1.3605826     23  2.600                                             
     2     68.0291300     23  2.600                                             
     3     -1.3605826     23  2.300                                             
  local pseudopotential read in
  partial core-charges read in
  partial kinetic energy density read in
  kinetic energy density of atom read in
  atomic valenz-charges read in
  non local Contribution for L=           0  read in
    real space projection operators read in
  non local Contribution for L=           0  read in
    real space projection operators read in
  non local Contribution for L=           1  read in
    real space projection operators read in
  non local Contribution for L=           1  read in
    real space projection operators read in
  non local Contribution for L=           2  read in
    real space projection operators read in
  non local Contribution for L=           2  read in
    real space projection operators read in
    PAW grid and wavefunctions read in
 
   number of l-projection  operators is LMAX  =           6
   number of lm-projection operators is LMMAX =          18
 
  PAW_PBE W_sv_GW 23Mar2010             :
 energy of atom  1       EATOM=-1863.8917
 kinetic energy error for atom=    0.2291 (will be added to EATOM!!)
  PAW_PBE Te_GW 22Mar2012               :
 energy of atom  2       EATOM= -223.2721
 kinetic energy error for atom=    0.0024 (will be added to EATOM!!)
 
 
 POSCAR:  W Te                                   
  positions in cartesian coordinates
  No initial velocities read in
 exchange correlation table for  LEXCH =        8
   RHO(1)=    0.500       N(1)  =     2000
   RHO(2)=  100.500       N(2)  =     4000
 


--------------------------------------------------------------------------------------------------------


 ion  position               nearest neighbor table
   1  0.167  0.333  0.500-   2 2.74   3 2.74   2 2.74   3 2.74   2 2.74   3 2.74
   2  0.833  0.667  0.536-   1 2.74   1 2.74   1 2.74   3 3.62
   3  0.833  0.667  0.464-   1 2.74   1 2.74   1 2.74   2 3.62
 
  LATTYP: Found a hexagonal cell.
 ALAT       =     3.5500762221
 C/A-ratio  =    14.0842046402
  
  Lattice vectors:
  
 A1 = (   3.5500762221,   0.0000000000,   0.0000000000)
 A2 = (  -1.7750381110,   3.0744561937,   0.0000000000)
 A3 = (   0.0000000000,   0.0000000000,  50.0000000000)


Analysis of symmetry for initial positions (statically):
=====================================================================
 Subroutine PRICEL returns:
 Original cell was already a primitive cell.
 

 Routine SETGRP: Setting up the symmetry group for a 
 hexagonal supercell.


 Subroutine GETGRP returns: Found 12 space group operations
 (whereof  4 operations were pure point group operations)
 out of a pool of 24 trial point group operations.


The static configuration has the point symmetry C_2v.
 The point group associated with its full space group is D_3h.


Analysis of symmetry for dynamics (positions and initial velocities):
=====================================================================
 Subroutine PRICEL returns:
 Original cell was already a primitive cell.
 

 Routine SETGRP: Setting up the symmetry group for a 
 hexagonal supercell.


 Subroutine GETGRP returns: Found 12 space group operations
 (whereof  4 operations were pure point group operations)
 out of a pool of 24 trial point group operations.


The dynamic configuration has the point symmetry C_2v.
 The point group associated with its full space group is D_3h.


 Subroutine INISYM returns: Found 12 space group operations
 (whereof  4 operations are pure point group operations),
 and found     1 'primitive' translations

 
 
 KPOINTS: KPOINTS created by Atomic Simulation Env

Automatic generation of k-mesh.
Space group operators:
 irot       det(A)        alpha          n_x          n_y          n_z        tau_x        tau_y        tau_z
    1     1.000000     0.000001     1.000000     0.000000     0.000000     0.000000     0.000000     0.000000
    2    -1.000000   180.000000     0.000000     0.000000     1.000000     0.000000     0.000000     0.000000
    3    -1.000000   179.999999     1.000000     0.000000     0.000000     0.000000     0.000000     0.000000
    4     1.000000   180.000000     0.000000     1.000000     0.000000     0.000000     0.000000     0.000000
    5    -1.000000    60.000000     0.000000     0.000000    -1.000000     0.000000     0.500000     0.000000
    6     1.000000   120.000000     0.000000     0.000000    -1.000000     0.500000     0.500000     0.000000
    7     1.000000   120.000000     0.000000     0.000000     1.000000     0.000000     0.500000     0.000000
    8    -1.000000    60.000000     0.000000     0.000000     1.000000     0.500000     0.500000     0.000000
    9     1.000000   180.000000     0.866025    -0.500000     0.000000     0.500000     0.500000     0.000000
   10    -1.000000   180.000000     0.500000    -0.866025     0.000000     0.000000     0.500000     0.000000
   11    -1.000000   180.000000    -0.500000    -0.866025     0.000000     0.500000     0.500000     0.000000
   12     1.000000   180.000000     0.866025     0.500000     0.000000     0.000000     0.500000     0.000000
 
 Subroutine IBZKPT returns following result:
 ===========================================
 
 Found     37 irreducible k-points:
 
 Following reciprocal coordinates:
            Coordinates               Weight
  0.000000  0.000000  0.000000      1.000000
  0.055556  0.000000  0.000000      6.000000
  0.111111  0.000000  0.000000      6.000000
  0.166667  0.000000  0.000000      6.000000
  0.222222  0.000000  0.000000      6.000000
  0.277778  0.000000  0.000000      6.000000
  0.333333  0.000000  0.000000      6.000000
  0.388889  0.000000  0.000000      6.000000
  0.444444  0.000000  0.000000      6.000000
  0.500000  0.000000  0.000000      3.000000
  0.055556  0.055556  0.000000      6.000000
  0.111111  0.055556  0.000000     12.000000
  0.166667  0.055556  0.000000     12.000000
  0.222222  0.055556  0.000000     12.000000
  0.277778  0.055556  0.000000     12.000000
  0.333333  0.055556  0.000000     12.000000
  0.388889  0.055556  0.000000     12.000000
  0.444444  0.055556  0.000000     12.000000
  0.111111  0.111111  0.000000      6.000000
  0.166667  0.111111  0.000000     12.000000
  0.222222  0.111111  0.000000     12.000000
  0.277778  0.111111  0.000000     12.000000
  0.333333  0.111111  0.000000     12.000000
  0.388889  0.111111  0.000000     12.000000
  0.444444  0.111111  0.000000      6.000000
  0.166667  0.166667  0.000000      6.000000
  0.222222  0.166667  0.000000     12.000000
  0.277778  0.166667  0.000000     12.000000
  0.333333  0.166667  0.000000     12.000000
  0.388889  0.166667  0.000000     12.000000
  0.222222  0.222222  0.000000      6.000000
  0.277778  0.222222  0.000000     12.000000
  0.333333  0.222222  0.000000     12.000000
  0.388889  0.222222  0.000000      6.000000
  0.277778  0.277778  0.000000      6.000000
  0.333333  0.277778  0.000000     12.000000
  0.333333  0.333333  0.000000      2.000000
 
 Following cartesian coordinates:
            Coordinates               Weight
  0.000000  0.000000  0.000000      1.000000
  0.015649  0.009035  0.000000      6.000000
  0.031298  0.018070  0.000000      6.000000
  0.046947  0.027105  0.000000      6.000000
  0.062596  0.036140  0.000000      6.000000
  0.078246  0.045175  0.000000      6.000000
  0.093895  0.054210  0.000000      6.000000
  0.109544  0.063245  0.000000      6.000000
  0.125193  0.072280  0.000000      6.000000
  0.140842  0.081315  0.000000      3.000000
  0.015649  0.027105  0.000000      6.000000
  0.031298  0.036140  0.000000     12.000000
  0.046947  0.045175  0.000000     12.000000
  0.062596  0.054210  0.000000     12.000000
  0.078246  0.063245  0.000000     12.000000
  0.093895  0.072280  0.000000     12.000000
  0.109544  0.081315  0.000000     12.000000
  0.125193  0.090350  0.000000     12.000000
  0.031298  0.054210  0.000000      6.000000
  0.046947  0.063245  0.000000     12.000000
  0.062596  0.072280  0.000000     12.000000
  0.078246  0.081315  0.000000     12.000000
  0.093895  0.090350  0.000000     12.000000
  0.109544  0.099385  0.000000     12.000000
  0.125193  0.108420  0.000000      6.000000
  0.046947  0.081315  0.000000      6.000000
  0.062596  0.090350  0.000000     12.000000
  0.078246  0.099385  0.000000     12.000000
  0.093895  0.108420  0.000000     12.000000
  0.109544  0.117455  0.000000     12.000000
  0.062596  0.108420  0.000000      6.000000
  0.078246  0.117455  0.000000     12.000000
  0.093895  0.126490  0.000000     12.000000
  0.109544  0.135525  0.000000      6.000000
  0.078246  0.135525  0.000000      6.000000
  0.093895  0.144560  0.000000     12.000000
  0.093895  0.162630  0.000000      2.000000
 
 TETIRR: Found    169 inequivalent tetrahedra from     1944
 
 Subroutine IBZKPT_HF returns following result:
 ==============================================
 
 Found    324 k-points in 1st BZ
 the following    324 k-points will be used (e.g. in the exchange kernel)
 Following reciprocal coordinates:   # in IRBZ
  0.000000  0.000000  0.000000    0.00308642   1 t-inv F
  0.055556  0.000000  0.000000    0.00308642   2 t-inv F
  0.111111  0.000000  0.000000    0.00308642   3 t-inv F
  0.166667  0.000000  0.000000    0.00308642   4 t-inv F
  0.222222  0.000000  0.000000    0.00308642   5 t-inv F
  0.277778  0.000000  0.000000    0.00308642   6 t-inv F
  0.333333  0.000000  0.000000    0.00308642   7 t-inv F
  0.388889  0.000000  0.000000    0.00308642   8 t-inv F
  0.444444  0.000000  0.000000    0.00308642   9 t-inv F
  0.500000  0.000000  0.000000    0.00308642  10 t-inv F
  0.055556  0.055556  0.000000    0.00308642  11 t-inv F
  0.111111  0.055556  0.000000    0.00308642  12 t-inv F
  0.166667  0.055556  0.000000    0.00308642  13 t-inv F
  0.222222  0.055556  0.000000    0.00308642  14 t-inv F
  0.277778  0.055556  0.000000    0.00308642  15 t-inv F
  0.333333  0.055556  0.000000    0.00308642  16 t-inv F
  0.388889  0.055556  0.000000    0.00308642  17 t-inv F
  0.444444  0.055556  0.000000    0.00308642  18 t-inv F
  0.111111  0.111111  0.000000    0.00308642  19 t-inv F
  0.166667  0.111111  0.000000    0.00308642  20 t-inv F
  0.222222  0.111111  0.000000    0.00308642  21 t-inv F
  0.277778  0.111111  0.000000    0.00308642  22 t-inv F
  0.333333  0.111111  0.000000    0.00308642  23 t-inv F
  0.388889  0.111111  0.000000    0.00308642  24 t-inv F
  0.444444  0.111111  0.000000    0.00308642  25 t-inv F
  0.166667  0.166667  0.000000    0.00308642  26 t-inv F
  0.222222  0.166667  0.000000    0.00308642  27 t-inv F
  0.277778  0.166667  0.000000    0.00308642  28 t-inv F
  0.333333  0.166667  0.000000    0.00308642  29 t-inv F
  0.388889  0.166667  0.000000    0.00308642  30 t-inv F
  0.222222  0.222222  0.000000    0.00308642  31 t-inv F
  0.277778  0.222222  0.000000    0.00308642  32 t-inv F
  0.333333  0.222222  0.000000    0.00308642  33 t-inv F
  0.388889  0.222222  0.000000    0.00308642  34 t-inv F
  0.277778  0.277778  0.000000    0.00308642  35 t-inv F
  0.333333  0.277778  0.000000    0.00308642  36 t-inv F
  0.333333  0.333333  0.000000    0.00308642  37 t-inv F
 -0.055556  0.055556  0.000000    0.00308642   2 t-inv F
  0.000000 -0.055556 -0.000000    0.00308642   2 t-inv F
 -0.111111  0.111111  0.000000    0.00308642   3 t-inv F
  0.000000 -0.111111 -0.000000    0.00308642   3 t-inv F
 -0.166667  0.166667  0.000000    0.00308642   4 t-inv F
  0.000000 -0.166667 -0.000000    0.00308642   4 t-inv F
 -0.222222  0.222222  0.000000    0.00308642   5 t-inv F
  0.000000 -0.222222 -0.000000    0.00308642   5 t-inv F
 -0.277778  0.277778  0.000000    0.00308642   6 t-inv F
  0.000000 -0.277778 -0.000000    0.00308642   6 t-inv F
 -0.333333  0.333333  0.000000    0.00308642   7 t-inv F
  0.000000 -0.333333 -0.000000    0.00308642   7 t-inv F
 -0.388889  0.388889  0.000000    0.00308642   8 t-inv F
  0.000000 -0.388889 -0.000000    0.00308642   8 t-inv F
 -0.444444  0.444444  0.000000    0.00308642   9 t-inv F
  0.000000 -0.444444 -0.000000    0.00308642   9 t-inv F
 -0.500000  0.500000  0.000000    0.00308642  10 t-inv F
  0.000000 -0.500000 -0.000000    0.00308642  10 t-inv F
 -0.055556  0.111111  0.000000    0.00308642  11 t-inv F
  0.055556 -0.111111 -0.000000    0.00308642  11 t-inv F
 -0.111111  0.055556  0.000000    0.00308642  11 t-inv F
 -0.055556 -0.055556 -0.000000    0.00308642  11 t-inv F
  0.111111 -0.055556  0.000000    0.00308642  11 t-inv F
 -0.111111  0.166667  0.000000    0.00308642  12 t-inv F
  0.055556 -0.166667 -0.000000    0.00308642  12 t-inv F
 -0.166667  0.111111  0.000000    0.00308642  12 t-inv F
 -0.055556 -0.111111 -0.000000    0.00308642  12 t-inv F
  0.166667 -0.055556  0.000000    0.00308642  12 t-inv F
 -0.166667  0.222222  0.000000    0.00308642  13 t-inv F
  0.055556 -0.222222 -0.000000    0.00308642  13 t-inv F
 -0.222222  0.166667  0.000000    0.00308642  13 t-inv F
 -0.055556 -0.166667 -0.000000    0.00308642  13 t-inv F
  0.222222 -0.055556  0.000000    0.00308642  13 t-inv F
 -0.222222  0.277778  0.000000    0.00308642  14 t-inv F
  0.055556 -0.277778 -0.000000    0.00308642  14 t-inv F
 -0.277778  0.222222  0.000000    0.00308642  14 t-inv F
 -0.055556 -0.222222 -0.000000    0.00308642  14 t-inv F
  0.277778 -0.055556  0.000000    0.00308642  14 t-inv F
 -0.277778  0.333333  0.000000    0.00308642  15 t-inv F
  0.055556 -0.333333 -0.000000    0.00308642  15 t-inv F
 -0.333333  0.277778  0.000000    0.00308642  15 t-inv F
 -0.055556 -0.277778 -0.000000    0.00308642  15 t-inv F
  0.333333 -0.055556  0.000000    0.00308642  15 t-inv F
 -0.333333  0.388889  0.000000    0.00308642  16 t-inv F
  0.055556 -0.388889 -0.000000    0.00308642  16 t-inv F
 -0.388889  0.333333  0.000000    0.00308642  16 t-inv F
 -0.055556 -0.333333 -0.000000    0.00308642  16 t-inv F
  0.388889 -0.055556  0.000000    0.00308642  16 t-inv F
 -0.388889  0.444444  0.000000    0.00308642  17 t-inv F
  0.055556 -0.444444 -0.000000    0.00308642  17 t-inv F
 -0.444444  0.388889  0.000000    0.00308642  17 t-inv F
 -0.055556 -0.388889 -0.000000    0.00308642  17 t-inv F
  0.444444 -0.055556  0.000000    0.00308642  17 t-inv F
 -0.444444  0.500000  0.000000    0.00308642  18 t-inv F
  0.055556 -0.500000 -0.000000    0.00308642  18 t-inv F
 -0.500000  0.444444  0.000000    0.00308642  18 t-inv F
 -0.055556 -0.444444 -0.000000    0.00308642  18 t-inv F
  0.500000 -0.055556  0.000000    0.00308642  18 t-inv F
 -0.111111  0.222222  0.000000    0.00308642  19 t-inv F
  0.111111 -0.222222 -0.000000    0.00308642  19 t-inv F
 -0.222222  0.111111  0.000000    0.00308642  19 t-inv F
 -0.111111 -0.111111 -0.000000    0.00308642  19 t-inv F
  0.222222 -0.111111  0.000000    0.00308642  19 t-inv F
 -0.166667  0.277778  0.000000    0.00308642  20 t-inv F
  0.111111 -0.277778 -0.000000    0.00308642  20 t-inv F
 -0.277778  0.166667  0.000000    0.00308642  20 t-inv F
 -0.111111 -0.166667 -0.000000    0.00308642  20 t-inv F
  0.277778 -0.111111  0.000000    0.00308642  20 t-inv F
 -0.222222  0.333333  0.000000    0.00308642  21 t-inv F
  0.111111 -0.333333 -0.000000    0.00308642  21 t-inv F
 -0.333333  0.222222  0.000000    0.00308642  21 t-inv F
 -0.111111 -0.222222 -0.000000    0.00308642  21 t-inv F
  0.333333 -0.111111  0.000000    0.00308642  21 t-inv F
 -0.277778  0.388889  0.000000    0.00308642  22 t-inv F
  0.111111 -0.388889 -0.000000    0.00308642  22 t-inv F
 -0.388889  0.277778  0.000000    0.00308642  22 t-inv F
 -0.111111 -0.277778 -0.000000    0.00308642  22 t-inv F
  0.388889 -0.111111  0.000000    0.00308642  22 t-inv F
 -0.333333  0.444444  0.000000    0.00308642  23 t-inv F
  0.111111 -0.444444 -0.000000    0.00308642  23 t-inv F
 -0.444444  0.333333  0.000000    0.00308642  23 t-inv F
 -0.111111 -0.333333 -0.000000    0.00308642  23 t-inv F
  0.444444 -0.111111  0.000000    0.00308642  23 t-inv F
 -0.388889  0.500000  0.000000    0.00308642  24 t-inv F
  0.111111 -0.500000 -0.000000    0.00308642  24 t-inv F
 -0.500000  0.388889  0.000000    0.00308642  24 t-inv F
 -0.111111 -0.388889 -0.000000    0.00308642  24 t-inv F
  0.500000 -0.111111  0.000000    0.00308642  24 t-inv F
 -0.444444  0.555556  0.000000    0.00308642  25 t-inv F
  0.111111 -0.555556 -0.000000    0.00308642  25 t-inv F
 -0.555556  0.444444  0.000000    0.00308642  25 t-inv F
 -0.111111 -0.444444 -0.000000    0.00308642  25 t-inv F
  0.555556 -0.111111  0.000000    0.00308642  25 t-inv F
 -0.166667  0.333333  0.000000    0.00308642  26 t-inv F
  0.166667 -0.333333 -0.000000    0.00308642  26 t-inv F
 -0.333333  0.166667  0.000000    0.00308642  26 t-inv F
 -0.166667 -0.166667 -0.000000    0.00308642  26 t-inv F
  0.333333 -0.166667  0.000000    0.00308642  26 t-inv F
 -0.222222  0.388889  0.000000    0.00308642  27 t-inv F
  0.166667 -0.388889 -0.000000    0.00308642  27 t-inv F
 -0.388889  0.222222  0.000000    0.00308642  27 t-inv F
 -0.166667 -0.222222 -0.000000    0.00308642  27 t-inv F
  0.388889 -0.166667  0.000000    0.00308642  27 t-inv F
 -0.277778  0.444444  0.000000    0.00308642  28 t-inv F
  0.166667 -0.444444 -0.000000    0.00308642  28 t-inv F
 -0.444444  0.277778  0.000000    0.00308642  28 t-inv F
 -0.166667 -0.277778 -0.000000    0.00308642  28 t-inv F
  0.444444 -0.166667  0.000000    0.00308642  28 t-inv F
 -0.333333  0.500000  0.000000    0.00308642  29 t-inv F
  0.166667 -0.500000 -0.000000    0.00308642  29 t-inv F
 -0.500000  0.333333  0.000000    0.00308642  29 t-inv F
 -0.166667 -0.333333 -0.000000    0.00308642  29 t-inv F
  0.500000 -0.166667  0.000000    0.00308642  29 t-inv F
 -0.388889  0.555556  0.000000    0.00308642  30 t-inv F
  0.166667 -0.555556 -0.000000    0.00308642  30 t-inv F
 -0.555556  0.388889  0.000000    0.00308642  30 t-inv F
 -0.166667 -0.388889 -0.000000    0.00308642  30 t-inv F
  0.555556 -0.166667  0.000000    0.00308642  30 t-inv F
 -0.222222  0.444444  0.000000    0.00308642  31 t-inv F
  0.222222 -0.444444 -0.000000    0.00308642  31 t-inv F
 -0.444444  0.222222  0.000000    0.00308642  31 t-inv F
 -0.222222 -0.222222 -0.000000    0.00308642  31 t-inv F
  0.444444 -0.222222  0.000000    0.00308642  31 t-inv F
 -0.277778  0.500000  0.000000    0.00308642  32 t-inv F
  0.222222 -0.500000 -0.000000    0.00308642  32 t-inv F
 -0.500000  0.277778  0.000000    0.00308642  32 t-inv F
 -0.222222 -0.277778 -0.000000    0.00308642  32 t-inv F
  0.500000 -0.222222  0.000000    0.00308642  32 t-inv F
 -0.333333  0.555556  0.000000    0.00308642  33 t-inv F
  0.222222 -0.555556 -0.000000    0.00308642  33 t-inv F
 -0.555556  0.333333  0.000000    0.00308642  33 t-inv F
 -0.222222 -0.333333 -0.000000    0.00308642  33 t-inv F
  0.555556 -0.222222  0.000000    0.00308642  33 t-inv F
 -0.388889  0.611111  0.000000    0.00308642  34 t-inv F
  0.222222 -0.611111 -0.000000    0.00308642  34 t-inv F
 -0.611111  0.388889  0.000000    0.00308642  34 t-inv F
 -0.222222 -0.388889 -0.000000    0.00308642  34 t-inv F
  0.611111 -0.222222  0.000000    0.00308642  34 t-inv F
 -0.277778  0.555556  0.000000    0.00308642  35 t-inv F
  0.277778 -0.555556 -0.000000    0.00308642  35 t-inv F
 -0.555556  0.277778  0.000000    0.00308642  35 t-inv F
 -0.277778 -0.277778 -0.000000    0.00308642  35 t-inv F
  0.555556 -0.277778  0.000000    0.00308642  35 t-inv F
 -0.333333  0.611111  0.000000    0.00308642  36 t-inv F
  0.277778 -0.611111 -0.000000    0.00308642  36 t-inv F
 -0.611111  0.333333  0.000000    0.00308642  36 t-inv F
 -0.277778 -0.333333 -0.000000    0.00308642  36 t-inv F
  0.611111 -0.277778  0.000000    0.00308642  36 t-inv F
 -0.333333  0.666667  0.000000    0.00308642  37 t-inv F
 -0.055556 -0.000000 -0.000000    0.00308642   2 t-inv T
  0.055556 -0.055556 -0.000000    0.00308642   2 t-inv T
 -0.000000  0.055556  0.000000    0.00308642   2 t-inv T
 -0.111111 -0.000000 -0.000000    0.00308642   3 t-inv T
  0.111111 -0.111111 -0.000000    0.00308642   3 t-inv T
 -0.000000  0.111111  0.000000    0.00308642   3 t-inv T
 -0.166667 -0.000000 -0.000000    0.00308642   4 t-inv T
  0.166667 -0.166667 -0.000000    0.00308642   4 t-inv T
 -0.000000  0.166667  0.000000    0.00308642   4 t-inv T
 -0.222222 -0.000000 -0.000000    0.00308642   5 t-inv T
  0.222222 -0.222222 -0.000000    0.00308642   5 t-inv T
 -0.000000  0.222222  0.000000    0.00308642   5 t-inv T
 -0.277778 -0.000000 -0.000000    0.00308642   6 t-inv T
  0.277778 -0.277778 -0.000000    0.00308642   6 t-inv T
 -0.000000  0.277778  0.000000    0.00308642   6 t-inv T
 -0.333333 -0.000000 -0.000000    0.00308642   7 t-inv T
  0.333333 -0.333333 -0.000000    0.00308642   7 t-inv T
 -0.000000  0.333333  0.000000    0.00308642   7 t-inv T
 -0.388889 -0.000000 -0.000000    0.00308642   8 t-inv T
  0.388889 -0.388889 -0.000000    0.00308642   8 t-inv T
 -0.000000  0.388889  0.000000    0.00308642   8 t-inv T
 -0.444444 -0.000000 -0.000000    0.00308642   9 t-inv T
  0.444444 -0.444444 -0.000000    0.00308642   9 t-inv T
 -0.000000  0.444444  0.000000    0.00308642   9 t-inv T
 -0.111111 -0.055556 -0.000000    0.00308642  12 t-inv T
  0.111111 -0.166667 -0.000000    0.00308642  12 t-inv T
 -0.055556  0.166667  0.000000    0.00308642  12 t-inv T
  0.166667 -0.111111 -0.000000    0.00308642  12 t-inv T
  0.055556  0.111111  0.000000    0.00308642  12 t-inv T
 -0.166667  0.055556 -0.000000    0.00308642  12 t-inv T
 -0.166667 -0.055556 -0.000000    0.00308642  13 t-inv T
  0.166667 -0.222222 -0.000000    0.00308642  13 t-inv T
 -0.055556  0.222222  0.000000    0.00308642  13 t-inv T
  0.222222 -0.166667 -0.000000    0.00308642  13 t-inv T
  0.055556  0.166667  0.000000    0.00308642  13 t-inv T
 -0.222222  0.055556 -0.000000    0.00308642  13 t-inv T
 -0.222222 -0.055556 -0.000000    0.00308642  14 t-inv T
  0.222222 -0.277778 -0.000000    0.00308642  14 t-inv T
 -0.055556  0.277778  0.000000    0.00308642  14 t-inv T
  0.277778 -0.222222 -0.000000    0.00308642  14 t-inv T
  0.055556  0.222222  0.000000    0.00308642  14 t-inv T
 -0.277778  0.055556 -0.000000    0.00308642  14 t-inv T
 -0.277778 -0.055556 -0.000000    0.00308642  15 t-inv T
  0.277778 -0.333333 -0.000000    0.00308642  15 t-inv T
 -0.055556  0.333333  0.000000    0.00308642  15 t-inv T
  0.333333 -0.277778 -0.000000    0.00308642  15 t-inv T
  0.055556  0.277778  0.000000    0.00308642  15 t-inv T
 -0.333333  0.055556 -0.000000    0.00308642  15 t-inv T
 -0.333333 -0.055556 -0.000000    0.00308642  16 t-inv T
  0.333333 -0.388889 -0.000000    0.00308642  16 t-inv T
 -0.055556  0.388889  0.000000    0.00308642  16 t-inv T
  0.388889 -0.333333 -0.000000    0.00308642  16 t-inv T
  0.055556  0.333333  0.000000    0.00308642  16 t-inv T
 -0.388889  0.055556 -0.000000    0.00308642  16 t-inv T
 -0.388889 -0.055556 -0.000000    0.00308642  17 t-inv T
  0.388889 -0.444444 -0.000000    0.00308642  17 t-inv T
 -0.055556  0.444444  0.000000    0.00308642  17 t-inv T
  0.444444 -0.388889 -0.000000    0.00308642  17 t-inv T
  0.055556  0.388889  0.000000    0.00308642  17 t-inv T
 -0.444444  0.055556 -0.000000    0.00308642  17 t-inv T
 -0.444444 -0.055556 -0.000000    0.00308642  18 t-inv T
  0.444444 -0.500000 -0.000000    0.00308642  18 t-inv T
 -0.055556  0.500000  0.000000    0.00308642  18 t-inv T
  0.500000 -0.444444 -0.000000    0.00308642  18 t-inv T
  0.055556  0.444444  0.000000    0.00308642  18 t-inv T
 -0.500000  0.055556 -0.000000    0.00308642  18 t-inv T
 -0.166667 -0.111111 -0.000000    0.00308642  20 t-inv T
  0.166667 -0.277778 -0.000000    0.00308642  20 t-inv T
 -0.111111  0.277778  0.000000    0.00308642  20 t-inv T
  0.277778 -0.166667 -0.000000    0.00308642  20 t-inv T
  0.111111  0.166667  0.000000    0.00308642  20 t-inv T
 -0.277778  0.111111 -0.000000    0.00308642  20 t-inv T
 -0.222222 -0.111111 -0.000000    0.00308642  21 t-inv T
  0.222222 -0.333333 -0.000000    0.00308642  21 t-inv T
 -0.111111  0.333333  0.000000    0.00308642  21 t-inv T
  0.333333 -0.222222 -0.000000    0.00308642  21 t-inv T
  0.111111  0.222222  0.000000    0.00308642  21 t-inv T
 -0.333333  0.111111 -0.000000    0.00308642  21 t-inv T
 -0.277778 -0.111111 -0.000000    0.00308642  22 t-inv T
  0.277778 -0.388889 -0.000000    0.00308642  22 t-inv T
 -0.111111  0.388889  0.000000    0.00308642  22 t-inv T
  0.388889 -0.277778 -0.000000    0.00308642  22 t-inv T
  0.111111  0.277778  0.000000    0.00308642  22 t-inv T
 -0.388889  0.111111 -0.000000    0.00308642  22 t-inv T
 -0.333333 -0.111111 -0.000000    0.00308642  23 t-inv T
  0.333333 -0.444444 -0.000000    0.00308642  23 t-inv T
 -0.111111  0.444444  0.000000    0.00308642  23 t-inv T
  0.444444 -0.333333 -0.000000    0.00308642  23 t-inv T
  0.111111  0.333333  0.000000    0.00308642  23 t-inv T
 -0.444444  0.111111 -0.000000    0.00308642  23 t-inv T
 -0.388889 -0.111111 -0.000000    0.00308642  24 t-inv T
  0.388889 -0.500000 -0.000000    0.00308642  24 t-inv T
 -0.111111  0.500000  0.000000    0.00308642  24 t-inv T
  0.500000 -0.388889 -0.000000    0.00308642  24 t-inv T
  0.111111  0.388889  0.000000    0.00308642  24 t-inv T
 -0.500000  0.111111 -0.000000    0.00308642  24 t-inv T
 -0.222222 -0.166667 -0.000000    0.00308642  27 t-inv T
  0.222222 -0.388889 -0.000000    0.00308642  27 t-inv T
 -0.166667  0.388889  0.000000    0.00308642  27 t-inv T
  0.388889 -0.222222 -0.000000    0.00308642  27 t-inv T
  0.166667  0.222222  0.000000    0.00308642  27 t-inv T
 -0.388889  0.166667 -0.000000    0.00308642  27 t-inv T
 -0.277778 -0.166667 -0.000000    0.00308642  28 t-inv T
  0.277778 -0.444444 -0.000000    0.00308642  28 t-inv T
 -0.166667  0.444444  0.000000    0.00308642  28 t-inv T
  0.444444 -0.277778 -0.000000    0.00308642  28 t-inv T
  0.166667  0.277778  0.000000    0.00308642  28 t-inv T
 -0.444444  0.166667 -0.000000    0.00308642  28 t-inv T
 -0.333333 -0.166667 -0.000000    0.00308642  29 t-inv T
  0.333333 -0.500000 -0.000000    0.00308642  29 t-inv T
 -0.166667  0.500000  0.000000    0.00308642  29 t-inv T
  0.500000 -0.333333 -0.000000    0.00308642  29 t-inv T
  0.166667  0.333333  0.000000    0.00308642  29 t-inv T
 -0.500000  0.166667 -0.000000    0.00308642  29 t-inv T
 -0.388889 -0.166667 -0.000000    0.00308642  30 t-inv T
  0.388889 -0.555556 -0.000000    0.00308642  30 t-inv T
 -0.166667  0.555556  0.000000    0.00308642  30 t-inv T
  0.555556 -0.388889 -0.000000    0.00308642  30 t-inv T
  0.166667  0.388889  0.000000    0.00308642  30 t-inv T
 -0.555556  0.166667 -0.000000    0.00308642  30 t-inv T
 -0.277778 -0.222222 -0.000000    0.00308642  32 t-inv T
  0.277778 -0.500000 -0.000000    0.00308642  32 t-inv T
 -0.222222  0.500000  0.000000    0.00308642  32 t-inv T
  0.500000 -0.277778 -0.000000    0.00308642  32 t-inv T
  0.222222  0.277778  0.000000    0.00308642  32 t-inv T
 -0.500000  0.222222 -0.000000    0.00308642  32 t-inv T
 -0.333333 -0.222222 -0.000000    0.00308642  33 t-inv T
  0.333333 -0.555556 -0.000000    0.00308642  33 t-inv T
 -0.222222  0.555556  0.000000    0.00308642  33 t-inv T
  0.555556 -0.333333 -0.000000    0.00308642  33 t-inv T
  0.222222  0.333333  0.000000    0.00308642  33 t-inv T
 -0.555556  0.222222 -0.000000    0.00308642  33 t-inv T
 -0.333333 -0.277778 -0.000000    0.00308642  36 t-inv T
  0.333333 -0.611111 -0.000000    0.00308642  36 t-inv T
 -0.277778  0.611111  0.000000    0.00308642  36 t-inv T
  0.611111 -0.333333 -0.000000    0.00308642  36 t-inv T
  0.277778  0.333333  0.000000    0.00308642  36 t-inv T
 -0.611111  0.277778 -0.000000    0.00308642  36 t-inv T


--------------------------------------------------------------------------------------------------------




 Dimension of arrays:
   k-points           NKPTS =     37   k-points in BZ     NKDIM =     37   number of bands    NBANDS=     28
   number of dos      NEDOS =    301   number of ions     NIONS =      3
   non local maximal  LDIM  =      8   non local SUM 2l+1 LMDIM =     26
   total plane-waves  NPLWV = 169344
   max r-space proj   IRMAX =      1   max aug-charges    IRDMAX=  18246
   dimension x,y,z NGX =    24 NGY =   24 NGZ =  294
   dimension x,y,z NGXF=    48 NGYF=   48 NGZF=  588
   support grid    NGXF=    48 NGYF=   48 NGZF=  588
   ions per type =               1   2
 NGX,Y,Z   is equivalent  to a cutoff of  11.24, 11.24,  9.78 a.u.
 NGXF,Y,Z  is equivalent  to a cutoff of  22.48, 22.48, 19.55 a.u.


 I would recommend the setting:
   dimension x,y,z NGX =    21 NGY =   21 NGZ =  290
 SYSTEM =  unknown system                          
 POSCAR =   W Te                                   

 Startparameter for this run:
   NWRITE =      2    write-flag & timer
   PREC   = accura    normal or accurate (medium, high low for compatibility)
   ISTART =      0    job   : 0-new  1-cont  2-samecut
   ICHARG =      2    charge: 1-file 2-atom 10-const
   ISPIN  =      1    spin polarized calculation?
   LNONCOLLINEAR =      F non collinear calculations
   LSORBIT =      F    spin-orbit coupling
   INIWAV =      1    electr: 0-lowe 1-rand  2-diag
   LASPH  =      F    aspherical Exc in radial PAW
   METAGGA=      F    non-selfconsistent MetaGGA calc.

 Electronic Relaxation 1
   ENCUT  =  317.1 eV  23.31 Ry    4.83 a.u.   5.15  5.15 72.60*2*pi/ulx,y,z
   ENINI  =  317.1     initial cutoff
   ENAUG  =  807.8 eV  augmentation charge cutoff
   NELM   =     60;   NELMIN=  5; NELMDL= -5     # of ELM steps 
   EDIFF  = 0.1E-07   stopping-criterion for ELM
   LREAL  =      F    real-space projection
   NLSPLINE    = F    spline interpolate recip. space projectors
   LCOMPAT=      F    compatible to vasp.4.4
   GGA_COMPAT  = T    GGA compatible to vasp.4.4-vasp.4.6
   LMAXPAW     = -100 max onsite density
   LMAXMIX     =    2 max onsite mixed and CHGCAR
   VOSKOWN=      0    Vosko Wilk Nusair interpolation
   ROPT   =    0.00000   0.00000
 Ionic relaxation
   EDIFFG = 0.1E-06   stopping-criterion for IOM
   NSW    =      0    number of steps for IOM
   NBLOCK =      1;   KBLOCK =      1    inner block; outer block 
   IBRION =     -1    ionic relax: 0-MD 1-quasi-New 2-CG
   NFREE  =      0    steps in history (QN), initial steepest desc. (CG)
   ISIF   =      2    stress and relaxation
   IWAVPR =     10    prediction:  0-non 1-charg 2-wave 3-comb
   ISYM   =      2    0-nonsym 1-usesym 2-fastsym
   LCORR  =      T    Harris-Foulkes like correction to forces

   POTIM  = 0.5000    time-step for ionic-motion
   TEIN   =    0.0    initial temperature
   TEBEG  =    0.0;   TEEND  =   0.0 temperature during run
   SMASS  =  -3.00    Nose mass-parameter (am)
   estimated Nose-frequenzy (Omega)   =  0.10E-29 period in steps =****** mass=  -0.288E-27a.u.
   SCALEE = 1.0000    scale energy and forces
   NPACO  =    256;   APACO  = 16.0  distance and # of slots for P.C.
   PSTRESS=    0.0 pullay stress

  Mass of Ions in am
   POMASS = 183.85127.60
  Ionic Valenz
   ZVAL   =  14.00  6.00
  Atomic Wigner-Seitz radii
   RWIGS  =  -1.00 -1.00
  virtual crystal weights 
   VCA    =   1.00  1.00
   NELECT =      26.0000    total number of electrons
   NUPDOWN=      -1.0000    fix difference up-down

 DOS related values:
   EMIN   =  10.00;   EMAX   =-10.00  energy-range for DOS
   EFERMI =   0.00
   ISMEAR =    -5;   SIGMA  =   0.01  broadening in eV -4-tet -1-fermi 0-gaus

 Electronic relaxation 2 (details)
   IALGO  =     38    algorithm
   LDIAG  =      T    sub-space diagonalisation (order eigenvalues)
   LSUBROT=      F    optimize rotation matrix (better conditioning)
   TURBO    =      0    0=normal 1=particle mesh
   IRESTART =      0    0=no restart 2=restart with 2 vectors
   NREBOOT  =      0    no. of reboots
   NMIN     =      0    reboot dimension
   EREF     =   0.00    reference energy to select bands
   IMIX   =      4    mixing-type and parameters
     AMIX     =   0.40;   BMIX     =  1.00
     AMIX_MAG =   1.60;   BMIX_MAG =  1.00
     AMIN     =   0.10
     WC   =   100.;   INIMIX=   1;  MIXPRE=   1;  MAXMIX= -45

 Intra band minimization:
   WEIMIN = 0.0000     energy-eigenvalue tresh-hold
   EBREAK =  0.89E-10  absolut break condition
   DEPER  =   0.30     relativ break condition  

   TIME   =   0.40     timestep for ELM

  volume/ion in A,a.u.               =     181.91      1227.58
  Fermi-wavevector in a.u.,A,eV,Ry     =   0.593482  1.121518  4.792250  0.352220
  Thomas-Fermi vector in A             =   1.642697
 
 Write flags
   LWAVE  =      T    write WAVECAR
   LCHARG =      T    write CHGCAR
   LVTOT  =      F    write LOCPOT, total local potential
   LVHAR  =      F    write LOCPOT, Hartree potential only
   LELF   =      F    write electronic localiz. function (ELF)
   LORBIT =      0    0 simple, 1 ext, 2 COOP (PROOUT)


 Dipole corrections
   LMONO  =      F    monopole corrections only (constant potential shift)
   LDIPOL =      F    correct potential (dipole corrections)
   IDIPOL =      0    1-x, 2-y, 3-z, 4-all directions 
   EPSILON=  1.0000000 bulk dielectric constant

 Exchange correlation treatment:
   GGA     =    PE    GGA type
   LEXCH   =     8    internal setting for exchange type
   VOSKOWN=      0    Vosko Wilk Nusair interpolation
   LHFCALC =     F    Hartree Fock is set to
   LHFONE  =     F    Hartree Fock one center treatment
   AEXX    =    0.0000 exact exchange contribution

 Linear response parameters
   LEPSILON=     T    determine dielectric tensor
   LRPA    =     F    only Hartree local field effects (RPA)
   LNABLA  =     F    use nabla operator in PAW spheres
   LVEL    =     F    velocity operator in full k-point grid
   LINTERFAST=   F  fast interpolation
   KINTER  =     0    interpolate to denser k-point grid
   CSHIFT  =0.1000    complex shift for real part using Kramers Kronig
   OMEGAMAX=  -1.0    maximum frequency
   DEG_THRESHOLD= 0.2000000E-02 threshold for treating states as degnerate
   RTIME   =    0.100 relaxation time in fs

 Orbital magnetization related:
   ORBITALMAG=     F  switch on orbital magnetization
   LCHIMAG   =     F  perturbation theory with respect to B field
   DQ        =  0.001000  dq finite difference perturbation B field



--------------------------------------------------------------------------------------------------------


 Static calculation
 charge density and potential will be updated during run
 non-spin polarized calculation
 Variant of blocked Davidson
 Davidson routine will perform the subspace rotation
 perform sub-space diagonalisation
    after iterative eigenvector-optimisation
 modified Broyden-mixing scheme, WC =      100.0
 initial mixing is a Kerker type mixing with AMIX =  0.4000 and BMIX =      1.0000
 Hartree-type preconditioning will be used
 using additional bands           15
 reciprocal scheme for non local part
 use partial core corrections
 calculate Harris-corrections to forces 
   (improved forces if not selfconsistent)
 use gradient corrections 
 use of overlap-Matrix (Vanderbilt PP)
 Fermi weights with tetrahedron method with Bloechl corrections


--------------------------------------------------------------------------------------------------------


  energy-cutoff  :      317.13
  volume of cell :      545.73
      direct lattice vectors                 reciprocal lattice vectors
     3.550076222  0.000000000  0.000000000     0.281684093  0.162630387  0.000000000
    -1.775038111  3.074456194  0.000000000     0.000000000  0.325260774  0.000000000
     0.000000000  0.000000000 50.000000000     0.000000000  0.000000000  0.020000000

  length of vectors
     3.550076222  3.550076222 50.000000000     0.325260774  0.325260774  0.020000000


 
 k-points in units of 2pi/SCALE and weight: KPOINTS created by Atomic Simulation Env
   0.00000000  0.00000000  0.00000000       0.003
   0.01564912  0.00903502  0.00000000       0.019
   0.03129823  0.01807004  0.00000000       0.019
   0.04694735  0.02710506  0.00000000       0.019
   0.06259647  0.03614009  0.00000000       0.019
   0.07824558  0.04517511  0.00000000       0.019
   0.09389470  0.05421013  0.00000000       0.019
   0.10954381  0.06324515  0.00000000       0.019
   0.12519293  0.07228017  0.00000000       0.019
   0.14084205  0.08131519  0.00000000       0.009
   0.01564912  0.02710506  0.00000000       0.019
   0.03129823  0.03614009  0.00000000       0.037
   0.04694735  0.04517511  0.00000000       0.037
   0.06259647  0.05421013  0.00000000       0.037
   0.07824558  0.06324515  0.00000000       0.037
   0.09389470  0.07228017  0.00000000       0.037
   0.10954381  0.08131519  0.00000000       0.037
   0.12519293  0.09035021  0.00000000       0.037
   0.03129823  0.05421013  0.00000000       0.019
   0.04694735  0.06324515  0.00000000       0.037
   0.06259647  0.07228017  0.00000000       0.037
   0.07824558  0.08131519  0.00000000       0.037
   0.09389470  0.09035021  0.00000000       0.037
   0.10954381  0.09938524  0.00000000       0.037
   0.12519293  0.10842026  0.00000000       0.019
   0.04694735  0.08131519  0.00000000       0.019
   0.06259647  0.09035021  0.00000000       0.037
   0.07824558  0.09938524  0.00000000       0.037
   0.09389470  0.10842026  0.00000000       0.037
   0.10954381  0.11745528  0.00000000       0.037
   0.06259647  0.10842026  0.00000000       0.019
   0.07824558  0.11745528  0.00000000       0.037
   0.09389470  0.12649030  0.00000000       0.037
   0.10954381  0.13552532  0.00000000       0.019
   0.07824558  0.13552532  0.00000000       0.019
   0.09389470  0.14456034  0.00000000       0.037
   0.09389470  0.16263039  0.00000000       0.006
 
 k-points in reciprocal lattice and weights: KPOINTS created by Atomic Simulation Env
   0.00000000  0.00000000  0.00000000       0.003
   0.05555556  0.00000000  0.00000000       0.019
   0.11111111  0.00000000  0.00000000       0.019
   0.16666667  0.00000000  0.00000000       0.019
   0.22222222  0.00000000  0.00000000       0.019
   0.27777778  0.00000000  0.00000000       0.019
   0.33333333  0.00000000  0.00000000       0.019
   0.38888889  0.00000000  0.00000000       0.019
   0.44444444  0.00000000  0.00000000       0.019
   0.50000000  0.00000000  0.00000000       0.009
   0.05555556  0.05555556  0.00000000       0.019
   0.11111111  0.05555556  0.00000000       0.037
   0.16666667  0.05555556  0.00000000       0.037
   0.22222222  0.05555556  0.00000000       0.037
   0.27777778  0.05555556  0.00000000       0.037
   0.33333333  0.05555556  0.00000000       0.037
   0.38888889  0.05555556  0.00000000       0.037
   0.44444444  0.05555556  0.00000000       0.037
   0.11111111  0.11111111  0.00000000       0.019
   0.16666667  0.11111111  0.00000000       0.037
   0.22222222  0.11111111  0.00000000       0.037
   0.27777778  0.11111111  0.00000000       0.037
   0.33333333  0.11111111  0.00000000       0.037
   0.38888889  0.11111111  0.00000000       0.037
   0.44444444  0.11111111  0.00000000       0.019
   0.16666667  0.16666667  0.00000000       0.019
   0.22222222  0.16666667  0.00000000       0.037
   0.27777778  0.16666667  0.00000000       0.037
   0.33333333  0.16666667  0.00000000       0.037
   0.38888889  0.16666667  0.00000000       0.037
   0.22222222  0.22222222  0.00000000       0.019
   0.27777778  0.22222222  0.00000000       0.037
   0.33333333  0.22222222  0.00000000       0.037
   0.38888889  0.22222222  0.00000000       0.019
   0.27777778  0.27777778  0.00000000       0.019
   0.33333333  0.27777778  0.00000000       0.037
   0.33333333  0.33333333  0.00000000       0.006
 
 position of ions in fractional coordinates (direct lattice) 
   0.16666667  0.33333333  0.50000000
   0.83333333  0.66666667  0.53623924
   0.83333333  0.66666667  0.46376076
 
 position of ions in cartesian coordinates  (Angst):
  -0.00000000  1.02481873 25.00000000
   1.77503811  2.04963746 26.81196221
   1.77503811  2.04963746 23.18803779
 


--------------------------------------------------------------------------------------------------------


 k-point  1 :   0.0000 0.0000 0.0000  plane waves:    6937
 k-point  2 :   0.0556 0.0000 0.0000  plane waves:    6949
 k-point  3 :   0.1111 0.0000 0.0000  plane waves:    6915
 k-point  4 :   0.1667 0.0000 0.0000  plane waves:    6927
 k-point  5 :   0.2222 0.0000 0.0000  plane waves:    6983
 k-point  6 :   0.2778 0.0000 0.0000  plane waves:    7013
 k-point  7 :   0.3333 0.0000 0.0000  plane waves:    7017
 k-point  8 :   0.3889 0.0000 0.0000  plane waves:    7031
 k-point  9 :   0.4444 0.0000 0.0000  plane waves:    7031
 k-point 10 :   0.5000 0.0000 0.0000  plane waves:    7042
 k-point 11 :   0.0556 0.0556 0.0000  plane waves:    6931
 k-point 12 :   0.1111 0.0556 0.0000  plane waves:    6925
 k-point 13 :   0.1667 0.0556 0.0000  plane waves:    6950
 k-point 14 :   0.2222 0.0556 0.0000  plane waves:    7000
 k-point 15 :   0.2778 0.0556 0.0000  plane waves:    7018
 k-point 16 :   0.3333 0.0556 0.0000  plane waves:    7028
 k-point 17 :   0.3889 0.0556 0.0000  plane waves:    7035
 k-point 18 :   0.4444 0.0556 0.0000  plane waves:    7024
 k-point 19 :   0.1111 0.1111 0.0000  plane waves:    6963
 k-point 20 :   0.1667 0.1111 0.0000  plane waves:    6972
 k-point 21 :   0.2222 0.1111 0.0000  plane waves:    6994
 k-point 22 :   0.2778 0.1111 0.0000  plane waves:    7025
 k-point 23 :   0.3333 0.1111 0.0000  plane waves:    7033
 k-point 24 :   0.3889 0.1111 0.0000  plane waves:    7033
 k-point 25 :   0.4444 0.1111 0.0000  plane waves:    7024
 k-point 26 :   0.1667 0.1667 0.0000  plane waves:    6971
 k-point 27 :   0.2222 0.1667 0.0000  plane waves:    7005
 k-point 28 :   0.2778 0.1667 0.0000  plane waves:    7005
 k-point 29 :   0.3333 0.1667 0.0000  plane waves:    7024
 k-point 30 :   0.3889 0.1667 0.0000  plane waves:    7005
 k-point 31 :   0.2222 0.2222 0.0000  plane waves:    7015
 k-point 32 :   0.2778 0.2222 0.0000  plane waves:    7013
 k-point 33 :   0.3333 0.2222 0.0000  plane waves:    7014
 k-point 34 :   0.3889 0.2222 0.0000  plane waves:    6993
 k-point 35 :   0.2778 0.2778 0.0000  plane waves:    7009
 k-point 36 :   0.3333 0.2778 0.0000  plane waves:    6982
 k-point 37 :   0.3333 0.3333 0.0000  plane waves:    6969

 maximum and minimum number of plane-waves per node :      7042     6915

 maximum number of plane-waves:      7042
 maximum index in each direction: 
   IXMAX=    5   IYMAX=    5   IZMAX=   72
   IXMIN=   -5   IYMIN=   -5   IZMIN=  -72

 NGX is ok and might be reduce to  22
 NGY is ok and might be reduce to  22
 NGZ is ok and might be reduce to 290

 serial   3D FFT for wavefunctions
 parallel 3D FFT for charge:
    minimum data exchange during FFTs selected (reduces bandwidth)


 total amount of memory used by VASP on root node   155735. kBytes
========================================================================

   base      :      30000. kBytes
   nonl-proj :     108944. kBytes
   fftplans  :       2517. kBytes
   grid      :       9951. kBytes
   one-center:         97. kBytes
   wavefun   :       4226. kBytes
 
     INWAV:  cpu time    0.0000: real time    0.0000
 Broyden mixing: mesh for mixing (old mesh)
   NGX = 11   NGY = 11   NGZ =145
  (NGX  = 48   NGY  = 48   NGZ  =588)
  gives a total of  17545 points

 initial charge density was supplied:
 charge density of overlapping atoms calculated
 number of electron      26.0000000 magnetization 
 keeping initial charge density in first step


--------------------------------------------------------------------------------------------------------


 Maximum index for augmentation-charges          988 (set IRDMAX)


--------------------------------------------------------------------------------------------------------


 First call to EWALD:  gamma=   0.217
 Maximum number of real-space cells 6x 6x 1
 Maximum number of reciprocal cells 1x 1x14

 FEWALD executed in parallel
    FEWALD:  cpu time    0.0010: real time    0.0011


----------------------------------------- Iteration    1(   1)  ---------------------------------------


    POTLOK:  cpu time    0.0400: real time    0.0410
    SETDIJ:  cpu time    0.0060: real time    0.0064
     EDDAV:  cpu time    3.2245: real time    3.2291
 BZINTS: Fermi energy:  1.527705; 26.000000 electrons
         Band energy:-424.926469;  BLOECHL correction: -0.328911
       DOS:  cpu time    0.0090: real time    0.0096
    --------------------------------------------
      LOOP:  cpu time    3.2805: real time    3.2882

 eigenvalue-minimisations  :  3948
 total energy-change (2. order) : 0.8218864E+02  (-0.1027251E+04)
 number of electron      26.0000000 magnetization 
 augmentation part       26.0000000 magnetization 

 Free energy of the ion-electron system (eV)
  ---------------------------------------------------
  alpha Z        PSCENC =         7.54938813
  Ewald energy   TEWEN  =     17577.00696512
  -Hartree energ DENC   =    -19490.59615245
  -exchange      EXHF   =         0.00000000
  -V(xc)+E(xc)   XCENC  =       -74.55561493
  PAW double counting   =      1973.54468711    -1796.03624360
  entropy T*S    EENTRO =         0.00000000
  eigenvalues    EBANDS =      -424.92646895
  atomic energy  EATOM  =      2310.20207948
  Solvation  Ediel_sol  =         0.00000000
  ---------------------------------------------------
  free energy    TOTEN  =        82.18863992 eV

  energy without entropy =       82.18863992  energy(sigma->0) =       82.18863992


--------------------------------------------------------------------------------------------------------




----------------------------------------- Iteration    1(   2)  ---------------------------------------


     EDDAV:  cpu time    2.5096: real time    2.5135
 BZINTS: Fermi energy: -2.574382; 26.000000 electrons
         Band energy:-528.762115;  BLOECHL correction:  0.000000
       DOS:  cpu time    0.0020: real time    0.0021
    --------------------------------------------
      LOOP:  cpu time    2.5126: real time    2.5180

 eigenvalue-minimisations  :  3080
 total energy-change (2. order) :-0.1038356E+03  (-0.1029856E+03)
 number of electron      26.0000000 magnetization 
 augmentation part       26.0000000 magnetization 

 Free energy of the ion-electron system (eV)
  ---------------------------------------------------
  alpha Z        PSCENC =         7.54938813
  Ewald energy   TEWEN  =     17577.00696512
  -Hartree energ DENC   =    -19490.59615245
  -exchange      EXHF   =         0.00000000
  -V(xc)+E(xc)   XCENC  =       -74.55561493
  PAW double counting   =      1973.54468711    -1796.03624360
  entropy T*S    EENTRO =         0.00000000
  eigenvalues    EBANDS =      -528.76211507
  atomic energy  EATOM  =      2310.20207948
  Solvation  Ediel_sol  =         0.00000000
  ---------------------------------------------------
  free energy    TOTEN  =       -21.64700620 eV

  energy without entropy =      -21.64700620  energy(sigma->0) =      -21.64700620


--------------------------------------------------------------------------------------------------------




----------------------------------------- Iteration    1(   3)  ---------------------------------------


     EDDAV:  cpu time    2.2947: real time    2.2960
 BZINTS: Fermi energy: -2.753848; 26.000000 electrons
         Band energy:-530.423675;  BLOECHL correction:  0.000000
       DOS:  cpu time    0.0020: real time    0.0023
    --------------------------------------------
      LOOP:  cpu time    2.2977: real time    2.3008

 eigenvalue-minimisations  :  2772
 total energy-change (2. order) :-0.1661560E+01  (-0.1661560E+01)
 number of electron      26.0000000 magnetization 
 augmentation part       26.0000000 magnetization 

 Free energy of the ion-electron system (eV)
  ---------------------------------------------------
  alpha Z        PSCENC =         7.54938813
  Ewald energy   TEWEN  =     17577.00696512
  -Hartree energ DENC   =    -19490.59615245
  -exchange      EXHF   =         0.00000000
  -V(xc)+E(xc)   XCENC  =       -74.55561493
  PAW double counting   =      1973.54468711    -1796.03624360
  entropy T*S    EENTRO =         0.00000000
  eigenvalues    EBANDS =      -530.42367494
  atomic energy  EATOM  =      2310.20207948
  Solvation  Ediel_sol  =         0.00000000
  ---------------------------------------------------
  free energy    TOTEN  =       -23.30856607 eV

  energy without entropy =      -23.30856607  energy(sigma->0) =      -23.30856607


--------------------------------------------------------------------------------------------------------




----------------------------------------- Iteration    1(   4)  ---------------------------------------


     EDDAV:  cpu time    2.6736: real time    2.6772
 BZINTS: Fermi energy: -2.771539; 26.000000 electrons
         Band energy:-530.439398;  BLOECHL correction:  0.000000
       DOS:  cpu time    0.0020: real time    0.0022
    --------------------------------------------
      LOOP:  cpu time    2.6766: real time    2.6843

 eigenvalue-minimisations  :  3248
 total energy-change (2. order) :-0.1572347E-01  (-0.1572347E-01)
 number of electron      26.0000000 magnetization 
 augmentation part       26.0000000 magnetization 

 Free energy of the ion-electron system (eV)
  ---------------------------------------------------
  alpha Z        PSCENC =         7.54938813
  Ewald energy   TEWEN  =     17577.00696512
  -Hartree energ DENC   =    -19490.59615245
  -exchange      EXHF   =         0.00000000
  -V(xc)+E(xc)   XCENC  =       -74.55561493
  PAW double counting   =      1973.54468711    -1796.03624360
  entropy T*S    EENTRO =         0.00000000
  eigenvalues    EBANDS =      -530.43939841
  atomic energy  EATOM  =      2310.20207948
  Solvation  Ediel_sol  =         0.00000000
  ---------------------------------------------------
  free energy    TOTEN  =       -23.32428954 eV

  energy without entropy =      -23.32428954  energy(sigma->0) =      -23.32428954


--------------------------------------------------------------------------------------------------------




----------------------------------------- Iteration    1(   5)  ---------------------------------------


     EDDAV:  cpu time    2.4566: real time    2.4595
 BZINTS: Fermi energy: -2.781483; 26.000000 electrons
         Band energy:-530.439644;  BLOECHL correction:  0.000000
       DOS:  cpu time    0.0030: real time    0.0022
    CHARGE:  cpu time    0.1610: real time    0.1611
    MIXING:  cpu time    0.0020: real time    0.0019
    --------------------------------------------
      LOOP:  cpu time    2.6236: real time    2.6273

 eigenvalue-minimisations  :  2968
 total energy-change (2. order) :-0.2457387E-03  (-0.2457387E-03)
 number of electron      25.9999992 magnetization 
 augmentation part       -4.5279056 magnetization 

 Broyden mixing:
  rms(total) = 0.78004E+01    rms(broyden)= 0.78004E+01
  rms(prec ) = 0.78021E+01
  weight for this iteration     100.00

 Free energy of the ion-electron system (eV)
  ---------------------------------------------------
  alpha Z        PSCENC =         7.54938813
  Ewald energy   TEWEN  =     17577.00696512
  -Hartree energ DENC   =    -19490.59615245
  -exchange      EXHF   =         0.00000000
  -V(xc)+E(xc)   XCENC  =       -74.55561493
  PAW double counting   =      1973.54468711    -1796.03624360
  entropy T*S    EENTRO =         0.00000000
  eigenvalues    EBANDS =      -530.43964415
  atomic energy  EATOM  =      2310.20207948
  Solvation  Ediel_sol  =         0.00000000
  ---------------------------------------------------
  free energy    TOTEN  =       -23.32453528 eV

  energy without entropy =      -23.32453528  energy(sigma->0) =      -23.32453528


--------------------------------------------------------------------------------------------------------




----------------------------------------- Iteration    1(   6)  ---------------------------------------


    POTLOK:  cpu time    0.0360: real time    0.0362
    SETDIJ:  cpu time    0.0070: real time    0.0063
     EDDAV:  cpu time    1.7917: real time    1.7964
 BZINTS: Fermi energy: -4.084733; 26.000000 electrons
         Band energy:-565.771926;  BLOECHL correction:  0.000000
       DOS:  cpu time    0.0020: real time    0.0018
    CHARGE:  cpu time    0.1580: real time    0.1583
    MIXING:  cpu time    0.0020: real time    0.0018
    --------------------------------------------
      LOOP:  cpu time    1.9967: real time    2.0036

 eigenvalue-minimisations  :  2072
 total energy-change (2. order) : 0.1362664E+01  (-0.2052332E+01)
 number of electron      25.9999992 magnetization 
 augmentation part       -4.2127957 magnetization 

 Broyden mixing:
  rms(total) = 0.67692E+01    rms(broyden)= 0.67692E+01
  rms(prec ) = 0.67700E+01
  weight for this iteration     100.00

 eigenvalues of (default mixing * dielectric matrix)
  average eigenvalue GAMMA=   4.2753
  4.2753

 Free energy of the ion-electron system (eV)
  ---------------------------------------------------
  alpha Z        PSCENC =         7.54938813
  Ewald energy   TEWEN  =     17577.00696512
  -Hartree energ DENC   =    -19451.71593598
  -exchange      EXHF   =         0.00000000
  -V(xc)+E(xc)   XCENC  =       -75.37966004
  PAW double counting   =      2360.53985069    -2184.39263254
  entropy T*S    EENTRO =         0.00000000
  eigenvalues    EBANDS =      -565.77192632
  atomic energy  EATOM  =      2310.20207948
  Solvation  Ediel_sol  =         0.00000000
  ---------------------------------------------------
  free energy    TOTEN  =       -21.96187144 eV

  energy without entropy =      -21.96187144  energy(sigma->0) =      -21.96187144


--------------------------------------------------------------------------------------------------------




----------------------------------------- Iteration    1(   7)  ---------------------------------------


    POTLOK:  cpu time    0.0350: real time    0.0351
    SETDIJ:  cpu time    0.0060: real time    0.0064
     EDDAV:  cpu time    2.2847: real time    2.2884
 BZINTS: Fermi energy:  0.476760; 26.000000 electrons
         Band energy:-468.299422;  BLOECHL correction:  0.000000
       DOS:  cpu time    0.0020: real time    0.0019
    CHARGE:  cpu time    0.1580: real time    0.1589
    MIXING:  cpu time    0.0020: real time    0.0017
    --------------------------------------------
      LOOP:  cpu time    2.4886: real time    2.4949

 eigenvalue-minimisations  :  2744
 total energy-change (2. order) :-0.8034194E+01  (-0.1073020E+02)
 number of electron      25.9999992 magnetization 
 augmentation part       -4.7745832 magnetization 

 Broyden mixing:
  rms(total) = 0.83274E+01    rms(broyden)= 0.83274E+01
  rms(prec ) = 0.83383E+01
  weight for this iteration     100.00

 eigenvalues of (default mixing * dielectric matrix)
  average eigenvalue GAMMA=   1.5049
  0.7597  2.2501

 Free energy of the ion-electron system (eV)
  ---------------------------------------------------
  alpha Z        PSCENC =         7.54938813
  Ewald energy   TEWEN  =     17577.00696512
  -Hartree energ DENC   =    -19563.03366619
  -exchange      EXHF   =         0.00000000
  -V(xc)+E(xc)   XCENC  =       -74.47149326
  PAW double counting   =      3801.97637791    -3620.92629447
  entropy T*S    EENTRO =         0.00000000
  eigenvalues    EBANDS =      -468.29942228
  atomic energy  EATOM  =      2310.20207948
  Solvation  Ediel_sol  =         0.00000000
  ---------------------------------------------------
  free energy    TOTEN  =       -29.99606556 eV

  energy without entropy =      -29.99606556  energy(sigma->0) =      -29.99606556


--------------------------------------------------------------------------------------------------------




----------------------------------------- Iteration    1(   8)  ---------------------------------------


    POTLOK:  cpu time    0.0360: real time    0.0364
    SETDIJ:  cpu time    0.0070: real time    0.0063
     EDDAV:  cpu time    2.6316: real time    2.6342
 BZINTS: Fermi energy: -3.216110; 26.000000 electrons
         Band energy:-545.065025;  BLOECHL correction:  0.000000
       DOS:  cpu time    0.0010: real time    0.0016
    CHARGE:  cpu time    0.1590: real time    0.1589
    MIXING:  cpu time    0.0020: real time    0.0015
    --------------------------------------------
      LOOP:  cpu time    2.8376: real time    2.8440

 eigenvalue-minimisations  :  3220
 total energy-change (2. order) : 0.8532720E+01  (-0.6252655E+01)
 number of electron      25.9999992 magnetization 
 augmentation part       -4.3205313 magnetization 

 Broyden mixing:
  rms(total) = 0.86864E-01    rms(broyden)= 0.86734E-01
  rms(prec ) = 0.87267E-01
  weight for this iteration     100.00

 eigenvalues of (default mixing * dielectric matrix)
  average eigenvalue GAMMA=   1.2887
  2.3180  0.7740  0.7740

 Free energy of the ion-electron system (eV)
  ---------------------------------------------------
  alpha Z        PSCENC =         7.54938813
  Ewald energy   TEWEN  =     17577.00696512
  -Hartree energ DENC   =    -19473.48834558
  -exchange      EXHF   =         0.00000000
  -V(xc)+E(xc)   XCENC  =       -75.35157005
  PAW double counting   =      3014.91991370    -2837.23675085
  entropy T*S    EENTRO =         0.00000000
  eigenvalues    EBANDS =      -545.06502546
  atomic energy  EATOM  =      2310.20207948
  Solvation  Ediel_sol  =         0.00000000
  ---------------------------------------------------
  free energy    TOTEN  =       -21.46334550 eV

  energy without entropy =      -21.46334550  energy(sigma->0) =      -21.46334550


--------------------------------------------------------------------------------------------------------




----------------------------------------- Iteration    1(   9)  ---------------------------------------


    POTLOK:  cpu time    0.0350: real time    0.0356
    SETDIJ:  cpu time    0.0060: real time    0.0064
     EDDAV:  cpu time    1.9687: real time    1.9701
 BZINTS: Fermi energy: -3.219735; 26.000000 electrons
         Band energy:-543.909023;  BLOECHL correction:  0.000000
       DOS:  cpu time    0.0010: real time    0.0016
    CHARGE:  cpu time    0.1610: real time    0.1609
    MIXING:  cpu time    0.0020: real time    0.0016
    --------------------------------------------
      LOOP:  cpu time    2.1747: real time    2.1788

 eigenvalue-minimisations  :  2296
 total energy-change (2. order) :-0.3611390E-01  (-0.4050269E-01)
 number of electron      25.9999992 magnetization 
 augmentation part       -4.3129528 magnetization 

 Broyden mixing:
  rms(total) = 0.43598E+00    rms(broyden)= 0.43598E+00
  rms(prec ) = 0.43604E+00
  weight for this iteration     100.00

 eigenvalues of (default mixing * dielectric matrix)
  average eigenvalue GAMMA=   1.3218
  1.8926  1.8926  0.7510  0.7510

 Free energy of the ion-electron system (eV)
  ---------------------------------------------------
  alpha Z        PSCENC =         7.54938813
  Ewald energy   TEWEN  =     17577.00696512
  -Hartree energ DENC   =    -19474.74165353
  -exchange      EXHF   =         0.00000000
  -V(xc)+E(xc)   XCENC  =       -75.34959990
  PAW double counting   =      3024.20388330    -2846.46149920
  entropy T*S    EENTRO =         0.00000000
  eigenvalues    EBANDS =      -543.90902281
  atomic energy  EATOM  =      2310.20207948
  Solvation  Ediel_sol  =         0.00000000
  ---------------------------------------------------
  free energy    TOTEN  =       -21.49945940 eV

  energy without entropy =      -21.49945940  energy(sigma->0) =      -21.49945940


--------------------------------------------------------------------------------------------------------




----------------------------------------- Iteration    1(  10)  ---------------------------------------


    POTLOK:  cpu time    0.0350: real time    0.0358
    SETDIJ:  cpu time    0.0060: real time    0.0065
     EDDAV:  cpu time    2.7526: real time    2.7564
 BZINTS: Fermi energy: -2.973289; 26.000000 electrons
         Band energy:-542.119292;  BLOECHL correction:  0.000000
       DOS:  cpu time    0.0020: real time    0.0018
    CHARGE:  cpu time    0.1580: real time    0.1580
    MIXING:  cpu time    0.0010: real time    0.0017
    --------------------------------------------
      LOOP:  cpu time    2.9556: real time    2.9626

 eigenvalue-minimisations  :  3360
 total energy-change (2. order) : 0.2881848E-03  (-0.7673922E-03)
 number of electron      25.9999992 magnetization 
 augmentation part       -4.3135760 magnetization 

 Broyden mixing:
  rms(total) = 0.12750E+00    rms(broyden)= 0.12750E+00
  rms(prec ) = 0.12763E+00
  weight for this iteration     100.00

 eigenvalues of (default mixing * dielectric matrix)
  average eigenvalue GAMMA=   1.5586
  2.7484  2.4133  1.0769  0.7773  0.7773

 Free energy of the ion-electron system (eV)
  ---------------------------------------------------
  alpha Z        PSCENC =         7.54938813
  Ewald energy   TEWEN  =     17577.00696512
  -Hartree energ DENC   =    -19476.62335419
  -exchange      EXHF   =         0.00000000
  -V(xc)+E(xc)   XCENC  =       -75.31874327
  PAW double counting   =      2931.13702570    -2753.33324017
  entropy T*S    EENTRO =         0.00000000
  eigenvalues    EBANDS =      -542.11929201
  atomic energy  EATOM  =      2310.20207948
  Solvation  Ediel_sol  =         0.00000000
  ---------------------------------------------------
  free energy    TOTEN  =       -21.49917121 eV

  energy without entropy =      -21.49917121  energy(sigma->0) =      -21.49917121


--------------------------------------------------------------------------------------------------------




----------------------------------------- Iteration    1(  11)  ---------------------------------------


    POTLOK:  cpu time    0.0360: real time    0.0353
    SETDIJ:  cpu time    0.0060: real time    0.0063
     EDDAV:  cpu time    3.0615: real time    3.0644
 BZINTS: Fermi energy: -2.974789; 26.000000 electrons
         Band energy:-539.716840;  BLOECHL correction:  0.000000
       DOS:  cpu time    0.0010: real time    0.0018
    CHARGE:  cpu time    0.1590: real time    0.1586
    MIXING:  cpu time    0.0020: real time    0.0017
    --------------------------------------------
      LOOP:  cpu time    3.2675: real time    3.2712

 eigenvalue-minimisations  :  3752
 total energy-change (2. order) : 0.1871397E-02  (-0.5292511E-03)
 number of electron      25.9999992 magnetization 
 augmentation part       -4.3103568 magnetization 

 Broyden mixing:
  rms(total) = 0.65027E-01    rms(broyden)= 0.65027E-01
  rms(prec ) = 0.65109E-01
  weight for this iteration     100.00

 eigenvalues of (default mixing * dielectric matrix)
  average eigenvalue GAMMA=   1.4150
  2.3709  1.6472  1.6472  1.3400  0.7424  0.7424

 Free energy of the ion-electron system (eV)
  ---------------------------------------------------
  alpha Z        PSCENC =         7.54938813
  Ewald energy   TEWEN  =     17577.00696512
  -Hartree energ DENC   =    -19479.17902270
  -exchange      EXHF   =         0.00000000
  -V(xc)+E(xc)   XCENC  =       -75.30436418
  PAW double counting   =      2916.67634390    -2738.73184958
  entropy T*S    EENTRO =         0.00000000
  eigenvalues    EBANDS =      -539.71683999
  atomic energy  EATOM  =      2310.20207948
  Solvation  Ediel_sol  =         0.00000000
  ---------------------------------------------------
  free energy    TOTEN  =       -21.49729982 eV

  energy without entropy =      -21.49729982  energy(sigma->0) =      -21.49729982


--------------------------------------------------------------------------------------------------------




----------------------------------------- Iteration    1(  12)  ---------------------------------------


    POTLOK:  cpu time    0.0360: real time    0.0364
    SETDIJ:  cpu time    0.0060: real time    0.0065
     EDDAV:  cpu time    3.0695: real time    3.0714
 BZINTS: Fermi energy: -2.968640; 26.000000 electrons
         Band energy:-538.575747;  BLOECHL correction:  0.000000
       DOS:  cpu time    0.0020: real time    0.0019
    CHARGE:  cpu time    0.1560: real time    0.1566
    MIXING:  cpu time    0.0020: real time    0.0017
    --------------------------------------------
      LOOP:  cpu time    3.2715: real time    3.2783

 eigenvalue-minimisations  :  3724
 total energy-change (2. order) : 0.3753898E-03  (-0.1438642E-03)
 number of electron      25.9999992 magnetization 
 augmentation part       -4.3123770 magnetization 

 Broyden mixing:
  rms(total) = 0.65696E-02    rms(broyden)= 0.65694E-02
  rms(prec ) = 0.68156E-02
  weight for this iteration     100.00

 eigenvalues of (default mixing * dielectric matrix)
  average eigenvalue GAMMA=   1.5244
  2.6030  2.1822  2.1822  1.3071  0.9257  0.7352  0.7352

 Free energy of the ion-electron system (eV)
  ---------------------------------------------------
  alpha Z        PSCENC =         7.54938813
  Ewald energy   TEWEN  =     17577.00696512
  -Hartree energ DENC   =    -19480.35934989
  -exchange      EXHF   =         0.00000000
  -V(xc)+E(xc)   XCENC  =       -75.29350967
  PAW double counting   =      2920.43860352    -2742.46535441
  entropy T*S    EENTRO =         0.00000000
  eigenvalues    EBANDS =      -538.57574671
  atomic energy  EATOM  =      2310.20207948
  Solvation  Ediel_sol  =         0.00000000
  ---------------------------------------------------
  free energy    TOTEN  =       -21.49692443 eV

  energy without entropy =      -21.49692443  energy(sigma->0) =      -21.49692443


--------------------------------------------------------------------------------------------------------




----------------------------------------- Iteration    1(  13)  ---------------------------------------


    POTLOK:  cpu time    0.0350: real time    0.0360
    SETDIJ:  cpu time    0.0060: real time    0.0064
     EDDAV:  cpu time    2.6866: real time    2.6922
 BZINTS: Fermi energy: -2.959324; 26.000000 electrons
         Band energy:-537.523592;  BLOECHL correction:  0.000000
       DOS:  cpu time    0.0020: real time    0.0018
    CHARGE:  cpu time    0.1580: real time    0.1582
    MIXING:  cpu time    0.0020: real time    0.0018
    --------------------------------------------
      LOOP:  cpu time    2.8906: real time    2.8993

 eigenvalue-minimisations  :  3276
 total energy-change (2. order) : 0.1490430E-03  (-0.1606970E-04)
 number of electron      25.9999992 magnetization 
 augmentation part       -4.3118287 magnetization 

 Broyden mixing:
  rms(total) = 0.20001E-02    rms(broyden)= 0.20001E-02
  rms(prec ) = 0.23494E-02
  weight for this iteration     100.00

 eigenvalues of (default mixing * dielectric matrix)
  average eigenvalue GAMMA=   1.5574
  2.6771  2.6771  2.2060  1.2581  1.2581  0.7388  0.7388  0.9052

 Free energy of the ion-electron system (eV)
  ---------------------------------------------------
  alpha Z        PSCENC =         7.54938813
  Ewald energy   TEWEN  =     17577.00696512
  -Hartree energ DENC   =    -19481.42055904
  -exchange      EXHF   =         0.00000000
  -V(xc)+E(xc)   XCENC  =       -75.28437682
  PAW double counting   =      2916.42400826    -2738.45068843
  entropy T*S    EENTRO =         0.00000000
  eigenvalues    EBANDS =      -537.52359209
  atomic energy  EATOM  =      2310.20207948
  Solvation  Ediel_sol  =         0.00000000
  ---------------------------------------------------
  free energy    TOTEN  =       -21.49677538 eV

  energy without entropy =      -21.49677538  energy(sigma->0) =      -21.49677538


--------------------------------------------------------------------------------------------------------




----------------------------------------- Iteration    1(  14)  ---------------------------------------


    POTLOK:  cpu time    0.0350: real time    0.0357
    SETDIJ:  cpu time    0.0070: real time    0.0064
     EDDAV:  cpu time    2.4686: real time    2.4719
 BZINTS: Fermi energy: -2.946606; 26.000000 electrons
         Band energy:-536.699239;  BLOECHL correction:  0.000000
       DOS:  cpu time    0.0020: real time    0.0019
    CHARGE:  cpu time    0.1570: real time    0.1572
    MIXING:  cpu time    0.0020: real time    0.0018
    --------------------------------------------
      LOOP:  cpu time    2.6726: real time    2.6775

 eigenvalue-minimisations  :  2828
 total energy-change (2. order) :-0.2536482E-04  (-0.1076062E-04)
 number of electron      25.9999992 magnetization 
 augmentation part       -4.3120519 magnetization 

 Broyden mixing:
  rms(total) = 0.86137E-02    rms(broyden)= 0.86137E-02
  rms(prec ) = 0.86465E-02
  weight for this iteration     100.00

 eigenvalues of (default mixing * dielectric matrix)
  average eigenvalue GAMMA=   1.7360
  4.4025  2.5206  2.0026  2.0026  1.2134  1.1363  0.7376  0.7376  0.8704

 Free energy of the ion-electron system (eV)
  ---------------------------------------------------
  alpha Z        PSCENC =         7.54938813
  Ewald energy   TEWEN  =     17577.00696512
  -Hartree energ DENC   =    -19482.24078739
  -exchange      EXHF   =         0.00000000
  -V(xc)+E(xc)   XCENC  =       -75.27921133
[...]
      LOOP:  cpu time    3.7524: real time    3.7562

 Broyden mixing:
  rms(total) = 0.32250E-04    rms(broyden)= 0.32239E-04
  rms(prec ) = 0.39029E-04
  weight for this iteration     100.00

 eigenvalues of (default mixing * dielectric matrix)
  average eigenvalue GAMMA=   2.3285
  7.1002  5.9782  3.1425  3.1425  1.9772  1.9772  1.4933  0.8411  1.0466  0.9609
  1.0064  1.0064  0.5979

 Free energy of the ion-electron system (eV)
  ---------------------------------------------------
  -Hartree energ DENC   =        -0.18011837
  -V(xc)+E(xc)   XCENC  =         0.00432789
  PAW double counting   =         0.00475432       -0.00469070
  entropy T*S    EENTRO =         0.00000000
  eigenvalues    EBANDS =        -0.04762433
  ---------------------------------------------------
  free energy    TOTEN  =        -0.22335120 eV

  energy without entropy =       -0.22335120


----------------------------------------- Iteration    3(  16)  ---------------------------------------


   POT+DIJ:  cpu time    0.0920: real time    0.0923
    HAMIL1:  cpu time    0.5169: real time    0.5191
    LRDIAG:  cpu time    0.0700: real time    0.0700
    LRDIIS:  cpu time    2.7746: real time    2.7756
    LRDIAG:  cpu time    0.0630: real time    0.0634
    MIXING:  cpu time    0.0020: real time    0.0021
    --------------------------------------------
      LOOP:  cpu time    3.8734: real time    3.8799

 Broyden mixing:
  rms(total) = 0.18059E-04    rms(broyden)= 0.18058E-04
  rms(prec ) = 0.21859E-04
  weight for this iteration     100.00

 eigenvalues of (default mixing * dielectric matrix)
  average eigenvalue GAMMA=   2.4238
  7.4057  6.3871  3.4290  3.4290  2.1641  2.1641  1.9754  1.4844  0.8409  1.0813
  0.9813  0.9813  1.0109  0.5987

 Free energy of the ion-electron system (eV)
  ---------------------------------------------------
  -Hartree energ DENC   =        -0.18012299
  -V(xc)+E(xc)   XCENC  =         0.00432782
  PAW double counting   =         0.00476094       -0.00469739
  entropy T*S    EENTRO =         0.00000000
  eigenvalues    EBANDS =        -0.04761095
  ---------------------------------------------------
  free energy    TOTEN  =        -0.22334258 eV

  energy without entropy =       -0.22334258


----------------------------------------- Iteration    3(  17)  ---------------------------------------


   POT+DIJ:  cpu time    0.0910: real time    0.0921
    HAMIL1:  cpu time    0.5129: real time    0.5157
    LRDIAG:  cpu time    0.0700: real time    0.0702
    LRDIIS:  cpu time    2.7386: real time    2.7393
    LRDIAG:  cpu time    0.0640: real time    0.0636
    MIXING:  cpu time    0.0020: real time    0.0021
    --------------------------------------------
      LOOP:  cpu time    3.8354: real time    3.8422

 Broyden mixing:
  rms(total) = 0.10060E-04    rms(broyden)= 0.10059E-04
  rms(prec ) = 0.11467E-04
  weight for this iteration     100.00

 eigenvalues of (default mixing * dielectric matrix)
  average eigenvalue GAMMA=   2.4302
  7.8529  6.6910  3.7101  3.7101  2.3767  2.3767  1.7975  1.5329  0.8410  1.0242
  1.0242  1.0224  0.9806  0.9056  0.6075

 Free energy of the ion-electron system (eV)
  ---------------------------------------------------
  -Hartree energ DENC   =        -0.18012615
  -V(xc)+E(xc)   XCENC  =         0.00432673
  PAW double counting   =         0.00474936       -0.00468580
  entropy T*S    EENTRO =         0.00000000
  eigenvalues    EBANDS =        -0.04760121
  ---------------------------------------------------
  free energy    TOTEN  =        -0.22333708 eV

  energy without entropy =       -0.22333708


----------------------------------------- Iteration    3(  18)  ---------------------------------------


   POT+DIJ:  cpu time    0.0920: real time    0.0920
    HAMIL1:  cpu time    0.5239: real time    0.5248
    LRDIAG:  cpu time    0.0700: real time    0.0696
    LRDIIS:  cpu time    2.9556: real time    2.9571
    LRDIAG:  cpu time    0.0630: real time    0.0634
    MIXING:  cpu time    0.0020: real time    0.0021
    --------------------------------------------
      LOOP:  cpu time    4.0594: real time    4.0644

 Broyden mixing:
  rms(total) = 0.58032E-05    rms(broyden)= 0.58030E-05
  rms(prec ) = 0.67204E-05
  weight for this iteration     100.00

 eigenvalues of (default mixing * dielectric matrix)
  average eigenvalue GAMMA=   2.4558
  8.1009  6.8861  3.9035  3.9035  2.4893  2.4893  1.8080  1.8080  1.4226  1.1462
  0.8409  1.0003  1.0003  0.9420  0.9420  0.6106

 Free energy of the ion-electron system (eV)
  ---------------------------------------------------
  -Hartree energ DENC   =        -0.18012171
  -V(xc)+E(xc)   XCENC  =         0.00432571
  PAW double counting   =         0.00475424       -0.00469072
  entropy T*S    EENTRO =         0.00000000
  eigenvalues    EBANDS =        -0.04760394
  ---------------------------------------------------
  free energy    TOTEN  =        -0.22333641 eV

  energy without entropy =       -0.22333641


----------------------------------------- Iteration    3(  19)  ---------------------------------------


   POT+DIJ:  cpu time    0.0920: real time    0.0923
    HAMIL1:  cpu time    0.5249: real time    0.5249
    LRDIAG:  cpu time    0.0700: real time    0.0700
    LRDIIS:  cpu time    2.8516: real time    2.8541
    LRDIAG:  cpu time    0.0640: real time    0.0636
    MIXING:  cpu time    0.0030: real time    0.0022
    --------------------------------------------
      LOOP:  cpu time    3.9614: real time    3.9679

 Broyden mixing:
  rms(total) = 0.44435E-05    rms(broyden)= 0.44433E-05
  rms(prec ) = 0.49861E-05
  weight for this iteration     100.00

 eigenvalues of (default mixing * dielectric matrix)
  average eigenvalue GAMMA=   2.5027
  8.3773  7.1678  4.6261  3.9446  2.7873  2.7873  2.0962  1.8971  1.5022  0.8410
  1.0630  1.0122  1.0122  0.9379  0.9407  0.9407  0.6115

 Free energy of the ion-electron system (eV)
  ---------------------------------------------------
  -Hartree energ DENC   =        -0.18012116
  -V(xc)+E(xc)   XCENC  =         0.00432517
  PAW double counting   =         0.00475863       -0.00469515
  entropy T*S    EENTRO =         0.00000000
  eigenvalues    EBANDS =        -0.04760441
  ---------------------------------------------------
  free energy    TOTEN  =        -0.22333692 eV

  energy without entropy =       -0.22333692


----------------------------------------- Iteration    3(  20)  ---------------------------------------


   POT+DIJ:  cpu time    0.0910: real time    0.0922
    HAMIL1:  cpu time    0.5249: real time    0.5254
    LRDIAG:  cpu time    0.0700: real time    0.0695
    LRDIIS:  cpu time    2.7886: real time    2.7888
    LRDIAG:  cpu time    0.0630: real time    0.0637
    MIXING:  cpu time    0.0030: real time    0.0023
    --------------------------------------------
      LOOP:  cpu time    3.8994: real time    3.9031

 Broyden mixing:
  rms(total) = 0.15800E-05    rms(broyden)= 0.15798E-05
  rms(prec ) = 0.18879E-05
  weight for this iteration     100.00

 eigenvalues of (default mixing * dielectric matrix)
  average eigenvalue GAMMA=   2.5583
  8.4303  7.3946  4.8384  4.2622  2.9401  2.9401  2.2566  2.2566  1.8443  1.5004
  0.8409  1.0645  1.0098  1.0098  0.9697  0.9697  0.9094  0.6116

 Free energy of the ion-electron system (eV)
  ---------------------------------------------------
  -Hartree energ DENC   =        -0.18012424
  -V(xc)+E(xc)   XCENC  =         0.00432520
  PAW double counting   =         0.00475679       -0.00469328
  entropy T*S    EENTRO =         0.00000000
  eigenvalues    EBANDS =        -0.04760200
  ---------------------------------------------------
  free energy    TOTEN  =        -0.22333753 eV

  energy without entropy =       -0.22333753


----------------------------------------- Iteration    3(  21)  ---------------------------------------


   POT+DIJ:  cpu time    0.0920: real time    0.0924
    HAMIL1:  cpu time    0.5219: real time    0.5223
    LRDIAG:  cpu time    0.0700: real time    0.0701
    LRDIIS:  cpu time    2.7996: real time    2.8000
    LRDIAG:  cpu time    0.0630: real time    0.0632
    MIXING:  cpu time    0.0020: real time    0.0024
    --------------------------------------------
      LOOP:  cpu time    3.9084: real time    3.9125

 Broyden mixing:
  rms(total) = 0.83033E-06    rms(broyden)= 0.83026E-06
  rms(prec ) = 0.98567E-06
  weight for this iteration     100.00

 eigenvalues of (default mixing * dielectric matrix)
  average eigenvalue GAMMA=   2.5549
  8.5431  7.5685  5.1060  4.6351  3.1506  3.1506  2.2868  2.2868  1.8353  1.5073
  1.0709  1.0709  0.8410  1.0571  0.9822  0.9637  0.9637  0.9124  0.6116

 Free energy of the ion-electron system (eV)
  ---------------------------------------------------
  -Hartree energ DENC   =        -0.18012430
  -V(xc)+E(xc)   XCENC  =         0.00432520
  PAW double counting   =         0.00475596       -0.00469246
  entropy T*S    EENTRO =         0.00000000
  eigenvalues    EBANDS =        -0.04760184
  ---------------------------------------------------
  free energy    TOTEN  =        -0.22333743 eV

  energy without entropy =       -0.22333743


------------------------ aborting loop because EDIFF is reached ----------------------------------------


 change of polarisation eV/A/(eV/A) component  3 :     0.000     0.000     0.434
 dielectric tensor                  component  3 :     0.000     0.000     1.144


--------------------------------------------------------------------------------------------------------


    FORLOC:  cpu time    0.0020: real time    0.0021
    FORNL :  cpu time    0.1580: real time    0.1585
    STRESS:  cpu time    2.3496: real time    2.3520
    FORCOR:  cpu time    0.0370: real time    0.0376
    OFIELD:  cpu time    0.0010: real time    0.0003

  Hirshfeld charges:
            ion         q(e)     
   ------------------------------
      1     W           0.217
      2     Te         -0.109
      3     Te         -0.109

  Tkatchenko/Scheffler method for vdW energy calculation
  ---------------------------------------------------------------------------------------------

  Parameters of vdW forcefield:
            C6ts              R0ts           ALPHAts        RELVOL
            (au)              (au)            (au)                
   ---------------------------------------------------------------
   W         916.106          4.135         73.842          1.039
   Te        401.292          4.223         37.901          1.007
   Te        401.291          4.223         37.901          1.007
  Edisp (eV):   -0.67412
    FORVDW:  cpu time    0.1060: real time    0.1066
    FORLOC:  cpu time    0.0020: real time    0.0022
    FORNL :  cpu time    0.1580: real time    0.1581
    STRESS:  cpu time    2.3546: real time    2.3561
    FORCOR:  cpu time    0.0360: real time    0.0360
    OFIELD:  cpu time    0.0010: real time    0.0003

  Hirshfeld charges:
            ion         q(e)     
   ------------------------------
      1     W           0.217
      2     Te         -0.109
      3     Te         -0.109

  Tkatchenko/Scheffler method for vdW energy calculation
  ---------------------------------------------------------------------------------------------

  Parameters of vdW forcefield:
            C6ts              R0ts           ALPHAts        RELVOL
            (au)              (au)            (au)                
   ---------------------------------------------------------------
   W         916.106          4.135         73.842          1.039
   Te        401.291          4.223         37.901          1.007
   Te        401.292          4.223         37.901          1.007
  Edisp (eV):   -0.67412
    FORVDW:  cpu time    0.1060: real time    0.1064
    FORNLD:  cpu time    1.6178: real time    1.6181

 PIEZOELECTRIC TENSOR FIELD DIRECTION 3  (e Angst)
 -----------------------------------------------------------------------------
     0.00003  0.00000 -0.00000           (  0.00000  0.00000  0.00000)
    -0.00000  0.00003  0.00000           (  0.00000  0.00000  0.00000)
     0.00000 -0.00000  0.00001           (  0.00000  0.00000  0.00000)

 PIEZOELECTRIC TENSOR FIELD DIRECTION 3  (C/m^2)
 -----------------------------------------------------------------------------
     0.00000  0.00000 -0.00000
    -0.00000  0.00000  0.00000
     0.00000 -0.00000  0.00000


      POSITION         DIRECTION 3           BORN EFFECTIVE CHARGE    (rigid.aug.   ionic)
 -----------------------------------------------------------------------------------------
     -0.00000      1.02482     25.00000    -0.00000 -0.00000 -0.10820 (  1.94625 14.00000)
      1.77504      2.04964     26.81196     0.00000 -0.00000  0.08010 (  1.18266  6.00000)
      1.77504      2.04964     23.18804    -0.00000 -0.00000  0.08010 (  1.18266  6.00000)
 -----------------------------------------------------------------------------------------
    total drift (improves with k-points):  -0.00000 -0.00000  0.05200




--------------------------------------------------------------------------------------------------------


  LATTYP: Found a hexagonal cell.
 ALAT       =     3.5500762221
 C/A-ratio  =    14.0842046402
  
  Lattice vectors:
  
 A1 = (   3.5500762221,   0.0000000000,   0.0000000000)
 A2 = (  -1.7750381110,   3.0744561937,   0.0000000000)
 A3 = (   0.0000000000,   0.0000000000,  50.0000000000)


Analysis of symmetry for initial positions (statically):
=====================================================================
 Subroutine PRICEL returns:
 Original cell was already a primitive cell.
 

 Routine SETGRP: Setting up the symmetry group for a 
 hexagonal supercell.


 Subroutine GETGRP returns: Found 12 space group operations
 (whereof  4 operations were pure point group operations)
 out of a pool of 24 trial point group operations.


The static configuration has the point symmetry C_2v.
 The point group associated with its full space group is D_3h.


Analysis of symmetry for dynamics (positions and initial velocities):
=====================================================================
 Subroutine PRICEL returns:
 Original cell was already a primitive cell.
 

 Routine SETGRP: Setting up the symmetry group for a 
 hexagonal supercell.


 Subroutine GETGRP returns: Found 12 space group operations
 (whereof  4 operations were pure point group operations)
 out of a pool of 24 trial point group operations.


The dynamic configuration has the point symmetry C_2v.
 The point group associated with its full space group is D_3h.


 Subroutine INISYM returns: Found 12 space group operations
 (whereof  4 operations are pure point group operations),
 and found     1 'primitive' translations



 MACROSCOPIC STATIC DIELECTRIC TENSOR (including local field effects in DFT)
 ------------------------------------------------------
           3.460761    -0.000000     0.000000
          -0.000000     3.460761    -0.000000
           0.000000     0.000000     1.143947
 ------------------------------------------------------



--------------------------------------------------------------------------------------------------------


  LATTYP: Found a hexagonal cell.
 ALAT       =     3.5500762221
 C/A-ratio  =    14.0842046402
  
  Lattice vectors:
  
 A1 = (   3.5500762221,   0.0000000000,   0.0000000000)
 A2 = (  -1.7750381110,   3.0744561937,   0.0000000000)
 A3 = (   0.0000000000,   0.0000000000,  50.0000000000)


Analysis of symmetry for initial positions (statically):
=====================================================================
 Subroutine PRICEL returns:
 Original cell was already a primitive cell.
 

 Routine SETGRP: Setting up the symmetry group for a 
 hexagonal supercell.


 Subroutine GETGRP returns: Found 12 space group operations
 (whereof  4 operations were pure point group operations)
 out of a pool of 24 trial point group operations.


The static configuration has the point symmetry C_2v.
 The point group associated with its full space group is D_3h.


Analysis of symmetry for dynamics (positions and initial velocities):
=====================================================================
 Subroutine PRICEL returns:
 Original cell was already a primitive cell.
 

 Routine SETGRP: Setting up the symmetry group for a 
 hexagonal supercell.


 Subroutine GETGRP returns: Found 12 space group operations
 (whereof  4 operations were pure point group operations)
 out of a pool of 24 trial point group operations.


The dynamic configuration has the point symmetry C_2v.
 The point group associated with its full space group is D_3h.


 Subroutine INISYM returns: Found 12 space group operations
 (whereof  4 operations are pure point group operations),
 and found     1 'primitive' translations



--------------------------------------------------------------------------------------------------------




 MACROSCOPIC STATIC DIELECTRIC TENSOR (including local field effects in DFT)
 ------------------------------------------------------
           3.460761    -0.000000     0.000000
          -0.000000     3.460761    -0.000000
           0.000000     0.000000     1.143947
 ------------------------------------------------------


 PIEZOELECTRIC TENSOR  for field in x, y, z        (e  Angst)
          XX          YY          ZZ          XY          YZ          ZX
  --------------------------------------------------------------------------------
  x    -0.00416     0.00318    -0.00058    -0.81493     0.00000     0.00000
  y    -0.81809     0.81973     0.00197     0.00000     0.00000     0.00000
  z     0.00003     0.00003     0.00001    -0.00000    -0.00000    -0.00000

 PIEZOELECTRIC TENSOR  for field in x, y, z        (C/m^2)
          XX          YY          ZZ          XY          YZ          ZX
  --------------------------------------------------------------------------------
  x     0.00000     0.00000     0.00000    -0.02398     0.00000     0.00000
  y    -0.02398     0.02398     0.00000    -0.00000     0.00000     0.00000
  z     0.00000     0.00000     0.00000     0.00000     0.00000     0.00000
 
 BORN EFFECTIVE CHARGES (in e, cummulative output)
 -------------------------------------------------
 ion    1
    1    -2.50771    -0.00103     0.00000
    2     0.00000    -2.50842     0.00000
    3    -0.00000    -0.00000    -0.10820
 ion    2
    1     1.27823    -0.00028    -0.00029
    2     0.00000     1.27853     0.00083
    3     0.00000    -0.00000     0.08010
 ion    3
    1     1.27823    -0.00028     0.00029
    2     0.00000     1.27853    -0.00083
    3    -0.00000    -0.00000     0.08010


--------------------------------------------------------------------------------------------------------


 writing wavefunctions
     LOOP+:  cpu time  869.8158: real time  872.1017
    4ORBIT:  cpu time    0.0000: real time    0.0000
 BZINTS: Fermi energy: -2.864017; 26.000000 electrons
         Band energy:-535.234040;  BLOECHL correction:  0.000000

 total amount of memory used by VASP on root node   155735. kBytes
========================================================================

   base      :      30000. kBytes
   nonl-proj :     108944. kBytes
   fftplans  :       2517. kBytes
   grid      :       9951. kBytes
   one-center:         97. kBytes
   wavefun   :       4226. kBytes
 
  
  
 General timing and accounting informations for this job:
 ========================================================
  
                  Total CPU time used (sec):      872.138
                            User time (sec):      855.219
                          System time (sec):       16.919
                         Elapsed time (sec):      875.812
  
                   Maximum memory used (kb):      693972.
                   Average memory used (kb):           0.
  
                          Minor page faults:      3244395
                          Major page faults:            9
                 Voluntary context switches:         4784
