  12  12   0   0
  0.3976764E+02  0.3319749E-09  0.3319749E-09  0.5000000E-08  0.5000000E-15
  1.000000000000000E-004
  CAR 
 unknown system                          
     14.48083403    -63.98899407  301      0.94478868      1.00000000
    -63.989  0.0000E+00  0.0000E+00
    -63.727  0.0000E+00  0.0000E+00
    -63.466  0.0000E+00  0.0000E+00
    -63.204  0.0000E+00  0.0000E+00
    -62.943  0.0000E+00  0.0000E+00
    -62.681  0.0000E+00  0.0000E+00
    -62.420  0.0000E+00  0.0000E+00
    -62.158  0.0000E+00  0.0000E+00
    -61.896  0.0000E+00  0.0000E+00
    -61.635  0.0000E+00  0.0000E+00
    -61.373  0.0000E+00  0.0000E+00
    -61.112  0.0000E+00  0.0000E+00
    -60.850  0.0000E+00  0.0000E+00
    -60.589  0.0000E+00  0.0000E+00
    -60.327  0.0000E+00  0.8000E+01
    -60.066  0.0000E+00  0.8000E+01
    -59.804  0.0000E+00  0.8000E+01
    -59.542  0.0000E+00  0.8000E+01
    -59.281  0.0000E+00  0.8000E+01
    -59.019  0.0000E+00  0.8000E+01
    -58.758  0.0000E+00  0.8000E+01
    -58.496  0.0000E+00  0.8000E+01
    -58.235  0.0000E+00  0.8000E+01
    -57.973  0.0000E+00  0.8000E+01
    -57.711  0.0000E+00  0.8000E+01
    -57.450  0.0000E+00  0.8000E+01
    -57.188  0.0000E+00  0.8000E+01
    -56.927  0.0000E+00  0.8000E+01
    -56.665  0.0000E+00  0.8000E+01
    -56.404  0.0000E+00  0.8000E+01
    -56.142  0.0000E+00  0.8000E+01
    -55.880  0.0000E+00  0.8000E+01
    -55.619  0.0000E+00  0.8000E+01
    -55.357  0.0000E+00  0.8000E+01
    -55.096  0.0000E+00  0.8000E+01
    -54.834  0.0000E+00  0.8000E+01
    -54.573  0.0000E+00  0.8000E+01
    -54.311  0.0000E+00  0.8000E+01
    -54.049  0.0000E+00  0.8000E+01
    -53.788  0.0000E+00  0.8000E+01
    -53.526  0.0000E+00  0.8000E+01
    -53.265  0.0000E+00  0.8000E+01
    -53.003  0.0000E+00  0.8000E+01
    -52.742  0.0000E+00  0.8000E+01
    -52.480  0.0000E+00  0.8000E+01
    -52.219  0.0000E+00  0.8000E+01
    -51.957  0.0000E+00  0.8000E+01
    -51.695  0.0000E+00  0.8000E+01
    -51.434  0.0000E+00  0.8000E+01
    -51.172  0.0000E+00  0.8000E+01
    -50.911  0.0000E+00  0.8000E+01
    -50.649  0.0000E+00  0.8000E+01
    -50.388  0.0000E+00  0.8000E+01
    -50.126  0.0000E+00  0.8000E+01
    -49.864  0.0000E+00  0.8000E+01
    -49.603  0.0000E+00  0.8000E+01
    -49.341  0.0000E+00  0.8000E+01
    -49.080  0.0000E+00  0.8000E+01
    -48.818  0.0000E+00  0.8000E+01
    -48.557  0.0000E+00  0.8000E+01
    -48.295  0.0000E+00  0.8000E+01
    -48.033  0.0000E+00  0.8000E+01
    -47.772  0.0000E+00  0.8000E+01
    -47.510  0.0000E+00  0.8000E+01
    -47.249  0.0000E+00  0.8000E+01
    -46.987  0.0000E+00  0.8000E+01
    -46.726  0.0000E+00  0.8000E+01
    -46.464  0.0000E+00  0.8000E+01
    -46.202  0.0000E+00  0.8000E+01
    -45.941  0.0000E+00  0.8000E+01
    -45.679  0.0000E+00  0.8000E+01
    -45.418  0.0000E+00  0.8000E+01
    -45.156  0.0000E+00  0.8000E+01
    -44.895  0.0000E+00  0.8000E+01
    -44.633  0.0000E+00  0.8000E+01
    -44.372  0.0000E+00  0.8000E+01
    -44.110  0.0000E+00  0.8000E+01
    -43.848  0.0000E+00  0.8000E+01
    -43.587  0.0000E+00  0.8000E+01
    -43.325  0.0000E+00  0.8000E+01
    -43.064  0.0000E+00  0.8000E+01
    -42.802  0.0000E+00  0.8000E+01
    -42.541  0.0000E+00  0.8000E+01
    -42.279  0.0000E+00  0.8000E+01
    -42.017  0.0000E+00  0.8000E+01
    -41.756  0.0000E+00  0.8000E+01
    -41.494  0.0000E+00  0.8000E+01
    -41.233  0.0000E+00  0.8000E+01
    -40.971  0.0000E+00  0.8000E+01
    -40.710  0.0000E+00  0.8000E+01
    -40.448  0.0000E+00  0.8000E+01
    -40.186  0.0000E+00  0.8000E+01
    -39.925  0.0000E+00  0.8000E+01
    -39.663  0.0000E+00  0.8000E+01
    -39.402  0.0000E+00  0.8000E+01
    -39.140  0.0000E+00  0.8000E+01
    -38.879  0.0000E+00  0.8000E+01
    -38.617  0.0000E+00  0.8000E+01
    -38.356  0.0000E+00  0.8000E+01
    -38.094  0.0000E+00  0.8000E+01
    -37.832  0.0000E+00  0.8000E+01
    -37.571  0.0000E+00  0.8000E+01
    -37.309  0.0000E+00  0.8000E+01
    -37.048  0.0000E+00  0.8000E+01
    -36.786  0.0000E+00  0.8000E+01
    -36.525  0.0000E+00  0.8000E+01
    -36.263  0.0000E+00  0.8000E+01
    -36.001  0.0000E+00  0.8000E+01
    -35.740  0.0000E+00  0.8000E+01
    -35.478  0.0000E+00  0.8000E+01
    -35.217  0.0000E+00  0.8000E+01
    -34.955  0.0000E+00  0.8000E+01
    -34.694  0.0000E+00  0.8000E+01
    -34.432  0.8363E+02  0.2948E+02
    -34.170  0.0000E+00  0.3200E+02
    -33.909  0.0000E+00  0.3200E+02
    -33.647  0.0000E+00  0.3200E+02
    -33.386  0.0000E+00  0.3200E+02
    -33.124  0.0000E+00  0.3200E+02
    -32.863  0.0000E+00  0.3200E+02
    -32.601  0.0000E+00  0.3200E+02
    -32.339  0.0000E+00  0.3200E+02
    -32.078  0.0000E+00  0.3200E+02
    -31.816  0.0000E+00  0.3200E+02
    -31.555  0.0000E+00  0.3200E+02
    -31.293  0.0000E+00  0.3200E+02
    -31.032  0.0000E+00  0.3200E+02
    -30.770  0.0000E+00  0.3200E+02
    -30.509  0.0000E+00  0.3200E+02
    -30.247  0.0000E+00  0.3200E+02
    -29.985  0.0000E+00  0.3200E+02
    -29.724  0.0000E+00  0.3200E+02
    -29.462  0.0000E+00  0.3200E+02
    -29.201  0.0000E+00  0.3200E+02
    -28.939  0.0000E+00  0.3200E+02
    -28.678  0.0000E+00  0.3200E+02
    -28.416  0.0000E+00  0.3200E+02
    -28.154  0.0000E+00  0.3200E+02
    -27.893  0.0000E+00  0.3200E+02
    -27.631  0.0000E+00  0.3200E+02
    -27.370  0.0000E+00  0.3200E+02
    -27.108  0.0000E+00  0.3200E+02
    -26.847  0.0000E+00  0.3200E+02
    -26.585  0.0000E+00  0.3200E+02
    -26.323  0.0000E+00  0.3200E+02
    -26.062  0.0000E+00  0.3200E+02
    -25.800  0.0000E+00  0.3200E+02
    -25.539  0.0000E+00  0.3200E+02
    -25.277  0.0000E+00  0.3200E+02
    -25.016  0.0000E+00  0.3200E+02
    -24.754  0.0000E+00  0.3200E+02
    -24.493  0.0000E+00  0.3200E+02
    -24.231  0.0000E+00  0.3200E+02
    -23.969  0.0000E+00  0.3200E+02
    -23.708  0.0000E+00  0.3200E+02
    -23.446  0.0000E+00  0.3200E+02
    -23.185  0.0000E+00  0.3200E+02
    -22.923  0.0000E+00  0.3200E+02
    -22.662  0.0000E+00  0.3200E+02
    -22.400  0.0000E+00  0.3200E+02
    -22.138  0.0000E+00  0.3200E+02
    -21.877  0.0000E+00  0.3200E+02
    -21.615  0.0000E+00  0.3200E+02
    -21.354  0.0000E+00  0.3200E+02
    -21.092  0.0000E+00  0.3200E+02
    -20.831  0.0000E+00  0.3200E+02
    -20.569  0.0000E+00  0.3200E+02
    -20.307  0.0000E+00  0.3200E+02
    -20.046  0.0000E+00  0.3200E+02
    -19.784  0.0000E+00  0.3200E+02
    -19.523  0.0000E+00  0.3200E+02
    -19.261  0.0000E+00  0.3200E+02
    -19.000  0.0000E+00  0.3200E+02
    -18.738  0.0000E+00  0.3200E+02
    -18.476  0.0000E+00  0.3200E+02
    -18.215  0.0000E+00  0.3200E+02
    -17.953  0.0000E+00  0.3200E+02
    -17.692  0.0000E+00  0.3200E+02
    -17.430  0.0000E+00  0.3200E+02
    -17.169  0.0000E+00  0.3200E+02
    -16.907  0.0000E+00  0.3200E+02
    -16.646  0.0000E+00  0.3200E+02
    -16.384  0.0000E+00  0.3200E+02
    -16.122  0.0000E+00  0.3200E+02
    -15.861  0.0000E+00  0.3200E+02
    -15.599  0.0000E+00  0.3200E+02
    -15.338  0.0000E+00  0.3200E+02
    -15.076  0.0000E+00  0.3200E+02
    -14.815  0.0000E+00  0.3200E+02
    -14.553  0.0000E+00  0.3200E+02
    -14.291  0.0000E+00  0.3200E+02
    -14.030  0.0000E+00  0.3200E+02
    -13.768  0.1068E+01  0.3208E+02
    -13.507  0.2328E+01  0.3256E+02
    -13.245  0.2534E+01  0.3320E+02
    -12.984  0.2815E+01  0.3389E+02
    -12.722  0.5180E+01  0.3496E+02
    -12.460  0.8652E+01  0.3681E+02
    -12.199  0.1189E+02  0.3942E+02
    -11.937  0.1747E+02  0.4359E+02
    -11.676  0.7178E+01  0.4796E+02
    -11.414  0.0000E+00  0.4800E+02
    -11.153  0.0000E+00  0.4800E+02
    -10.891  0.0000E+00  0.4800E+02
    -10.630  0.0000E+00  0.4800E+02
    -10.368  0.0000E+00  0.4800E+02
    -10.106  0.0000E+00  0.4800E+02
     -9.845  0.0000E+00  0.4800E+02
     -9.583  0.0000E+00  0.4800E+02
     -9.322  0.0000E+00  0.4800E+02
     -9.060  0.0000E+00  0.4800E+02
     -8.799  0.0000E+00  0.4800E+02
     -8.537  0.0000E+00  0.4800E+02
     -8.275  0.0000E+00  0.4800E+02
     -8.014  0.0000E+00  0.4800E+02
     -7.752  0.0000E+00  0.4800E+02
     -7.491  0.0000E+00  0.4800E+02
     -7.229  0.0000E+00  0.4800E+02
     -6.968  0.0000E+00  0.4800E+02
     -6.706  0.0000E+00  0.4800E+02
     -6.444  0.0000E+00  0.4800E+02
     -6.183  0.0000E+00  0.4800E+02
     -5.921  0.0000E+00  0.4800E+02
     -5.660  0.0000E+00  0.4800E+02
     -5.398  0.3834E+00  0.4802E+02
     -5.137  0.3099E+01  0.4843E+02
     -4.875  0.5708E+01  0.4970E+02
     -4.613  0.1450E+02  0.5176E+02
     -4.352  0.1683E+02  0.5546E+02
     -4.090  0.6279E+01  0.5860E+02
     -3.829  0.3708E+01  0.6015E+02
     -3.567  0.6947E+01  0.6146E+02
     -3.306  0.1142E+02  0.6427E+02
     -3.044  0.2416E+02  0.6805E+02
     -2.783  0.6981E+01  0.6995E+02
     -2.521  0.1038E+02  0.7224E+02
     -2.259  0.1124E+02  0.7633E+02
     -1.998  0.6889E+01  0.7851E+02
     -1.736  0.5601E+01  0.8021E+02
     -1.475  0.1477E+02  0.8331E+02
     -1.213  0.2019E+02  0.8750E+02
     -0.952  0.9845E+01  0.9079E+02
     -0.690  0.1224E+02  0.9358E+02
     -0.428  0.7517E+01  0.9569E+02
     -0.167  0.1269E+02  0.9932E+02
      0.095  0.7785E+01  0.1021E+03
      0.356  0.3084E+01  0.1035E+03
      0.618  0.7028E+00  0.1039E+03
      0.879  0.0000E+00  0.1040E+03
      1.141  0.0000E+00  0.1040E+03
      1.403  0.0000E+00  0.1040E+03
      1.664  0.0000E+00  0.1040E+03
      1.926  0.5931E+01  0.1045E+03
      2.187  0.1175E+02  0.1069E+03
      2.449  0.1102E+02  0.1108E+03
      2.710  0.2017E+02  0.1162E+03
      2.972  0.1535E+02  0.1199E+03
      3.233  0.1055E+02  0.1233E+03
      3.495  0.1215E+02  0.1261E+03
      3.757  0.6953E+01  0.1279E+03
      4.018  0.8411E+01  0.1294E+03
      4.280  0.8293E+01  0.1323E+03
      4.541  0.5732E+01  0.1343E+03
      4.803  0.3541E+01  0.1356E+03
      5.064  0.0000E+00  0.1360E+03
      5.326  0.5197E+00  0.1360E+03
      5.588  0.7439E+00  0.1362E+03
      5.849  0.1590E+01  0.1365E+03
      6.111  0.3467E+01  0.1371E+03
      6.372  0.4742E+01  0.1382E+03
      6.634  0.5495E+01  0.1396E+03
      6.895  0.6637E+01  0.1413E+03
      7.157  0.6233E+01  0.1430E+03
      7.419  0.5966E+01  0.1445E+03
      7.680  0.7008E+01  0.1461E+03
      7.942  0.1153E+02  0.1484E+03
      8.203  0.1098E+02  0.1512E+03
      8.465  0.8970E+01  0.1539E+03
      8.726  0.8617E+01  0.1563E+03
      8.988  0.8775E+01  0.1587E+03
      9.250  0.1337E+02  0.1616E+03
      9.511  0.1088E+02  0.1646E+03
      9.773  0.6021E+01  0.1666E+03
     10.034  0.1312E+01  0.1673E+03
     10.296  0.9238E+00  0.1676E+03
     10.557  0.5099E+00  0.1678E+03
     10.819  0.9992E+00  0.1679E+03
     11.080  0.0000E+00  0.1680E+03
     11.342  0.0000E+00  0.1680E+03
     11.604  0.0000E+00  0.1680E+03
     11.865  0.0000E+00  0.1680E+03
     12.127  0.0000E+00  0.1680E+03
     12.388  0.0000E+00  0.1680E+03
     12.650  0.0000E+00  0.1680E+03
     12.911  0.0000E+00  0.1680E+03
     13.173  0.0000E+00  0.1680E+03
     13.435  0.0000E+00  0.1680E+03
     13.696  0.0000E+00  0.1680E+03
     13.958  0.0000E+00  0.1680E+03
     14.219  0.0000E+00  0.1680E+03
     14.481  0.0000E+00  0.1680E+03
