       N       E                     dE             d eps       ncg     rms          rms(c)
DAV:   1     0.663396947397E+03    0.66340E+03   -0.43264E+04  7280   0.781E+02
DAV:   2    -0.324846320548E+02   -0.69588E+03   -0.67176E+03  9408   0.301E+02
DAV:   3    -0.923134588163E+02   -0.59829E+02   -0.58905E+02  8512   0.832E+01
DAV:   4    -0.949026153430E+02   -0.25892E+01   -0.25840E+01 10248   0.211E+01
DAV:   5    -0.949149633642E+02   -0.12348E-01   -0.12343E-01  8904   0.113E+00    0.194E+01
DAV:   6    -0.872551529961E+02    0.76598E+01   -0.58876E+01 10080   0.323E+01    0.118E+01
DAV:   7    -0.833152756419E+02    0.39399E+01   -0.20216E+01  9884   0.181E+01    0.569E+00
DAV:   8    -0.830636204430E+02    0.25166E+00   -0.24418E+00 10024   0.679E+00    0.187E+00
DAV:   9    -0.829618333997E+02    0.10179E+00   -0.32423E-01  9492   0.278E+00    0.423E-01
DAV:  10    -0.829609851336E+02    0.84827E-03   -0.32643E-02  9156   0.695E-01    0.218E-01
DAV:  11    -0.829600950547E+02    0.89008E-03   -0.51812E-03  8792   0.289E-01    0.876E-02
DAV:  12    -0.829598841484E+02    0.21091E-03   -0.11569E-03  8736   0.137E-01    0.385E-02
DAV:  13    -0.829598019782E+02    0.82170E-04   -0.15353E-04  8568   0.518E-02    0.200E-02
DAV:  14    -0.829597936623E+02    0.83159E-05   -0.58226E-05  8372   0.264E-02    0.146E-02
DAV:  15    -0.829598240437E+02   -0.30381E-04   -0.20578E-05  8232   0.173E-02    0.687E-03
DAV:  16    -0.829598853990E+02   -0.61355E-04   -0.17925E-05  8204   0.129E-02    0.539E-03
DAV:  17    -0.829599647531E+02   -0.79354E-04   -0.80503E-06  7448   0.787E-03    0.220E-03
DAV:  18    -0.829600033548E+02   -0.38602E-04   -0.19321E-06  7392   0.392E-03    0.150E-03
DAV:  19    -0.829600273073E+02   -0.23952E-04   -0.73046E-07  7476   0.208E-03    0.781E-04
DAV:  20    -0.829600387738E+02   -0.11467E-04   -0.16516E-07  8008   0.124E-03    0.478E-04
DAV:  21    -0.829600510809E+02   -0.12307E-04   -0.21504E-07  7112   0.799E-04    0.232E-04
DAV:  22    -0.829600539757E+02   -0.28948E-05   -0.50273E-08  7308   0.402E-04    0.164E-04
DAV:  23    -0.829600567947E+02   -0.28191E-05   -0.41290E-08  6384   0.371E-04    0.867E-05
DAV:  24    -0.829600575789E+02   -0.78416E-06   -0.40531E-09  6496   0.183E-04    0.587E-05
DAV:  25    -0.829600584858E+02   -0.90690E-06   -0.76796E-09  5936   0.222E-04    0.352E-05
DAV:  26    -0.829600588235E+02   -0.33775E-06   -0.14658E-09  5824   0.140E-04    0.198E-05
DAV:  27    -0.829600590112E+02   -0.18772E-06   -0.43842E-10  5208   0.107E-04    0.119E-05
DAV:  28    -0.829600590668E+02   -0.55552E-07   -0.10559E-10  5292   0.716E-05    0.102E-05
DAV:  29    -0.829600590816E+02   -0.14837E-07   -0.40648E-11  5432   0.489E-05    0.646E-06
DAV:  30    -0.829600590848E+02   -0.31232E-08   -0.14546E-11  5824   0.319E-05
   1 F= -.86553473E+02 E0= -.86553473E+02  d E =0.000000E+00
 Linear response reoptimize wavefunctions
DAV:   1    -0.829600590851E+02    0.35934E+01    0.29585E-12  5768   0.211E-05
DAV:   2    -0.829600590851E+02    0.72760E-10   -0.13923E-11  6132   0.105E-05
 Linear response G [H, r] |phi>, progress :
  Direction:   1
       N       E                     dE             d eps       ncg     rms
RMM:   1    -0.416392655237E+03   -0.41639E+03   -0.74128E+00  9098   0.416E+02
RMM:   2    -0.441875196988E+03   -0.25483E+02   -0.35883E+02 10634   0.524E+01
RMM:   3    -0.449544887259E+03   -0.76697E+01   -0.21684E+01 10953   0.135E+01
RMM:   4    -0.449966529230E+03   -0.42164E+00   -0.89164E-01 12313   0.298E+00
RMM:   5    -0.449991668919E+03   -0.25140E-01   -0.89428E-02 12211   0.846E-01
RMM:   6    -0.449993523248E+03   -0.18543E-02   -0.94618E-03 12731   0.268E-01
RMM:   7    -0.449993855270E+03   -0.33202E-03   -0.17131E-03 12844   0.873E-02
RMM:   8    -0.449993873248E+03   -0.17978E-04   -0.39624E-04 13178   0.312E-02
RMM:   9    -0.449993871950E+03    0.12977E-05   -0.16192E-04 14296   0.126E-02
RMM:  10    -0.449993865023E+03    0.69277E-05   -0.57341E-05 14907   0.656E-03
RMM:  11    -0.449993870330E+03   -0.53074E-05   -0.10464E-04 15256   0.492E-03
RMM:  12    -0.449993870213E+03    0.11733E-06   -0.10249E-04 15472   0.449E-03
RMM:  13    -0.449993874285E+03   -0.40726E-05   -0.14299E-04 15489   0.438E-03
RMM:  14    -0.449993877001E+03   -0.27153E-05   -0.17016E-04 15463   0.435E-03
 Linear response G [H, r] |phi>, progress :
  Direction:   2
       N       E                     dE             d eps       ncg     rms
RMM:   1    -0.399730335921E+03   -0.39973E+03    0.39712E+01  9094   0.420E+02
RMM:   2    -0.469166109477E+03   -0.69436E+02   -0.38392E+02 10571   0.546E+01
RMM:   3    -0.476932723732E+03   -0.77666E+01   -0.22728E+01 10965   0.137E+01
RMM:   4    -0.477432261418E+03   -0.49954E+00   -0.88242E-01 12197   0.297E+00
RMM:   5    -0.477458583737E+03   -0.26322E-01   -0.76560E-02 12152   0.848E-01
RMM:   6    -0.477460995857E+03   -0.24121E-02   -0.98349E-03 12862   0.263E-01
RMM:   7    -0.477461297496E+03   -0.30164E-03   -0.27199E-03 12736   0.859E-02
RMM:   8    -0.477461265805E+03    0.31691E-04   -0.12562E-03 13143   0.302E-02
RMM:   9    -0.477461288152E+03   -0.22346E-04   -0.13067E-03 14147   0.117E-02
RMM:  10    -0.477461273152E+03    0.15000E-04   -0.11340E-03 14946   0.580E-03
RMM:  11    -0.477461264184E+03    0.89678E-05   -0.10409E-03 15320   0.433E-03
RMM:  12    -0.477461259576E+03    0.46084E-05   -0.99436E-04 15523   0.399E-03
RMM:  13    -0.477461256509E+03    0.30664E-05   -0.96366E-04 15520   0.392E-03
RMM:  14    -0.477461257608E+03   -0.10982E-05   -0.97464E-04 15532   0.391E-03
 Linear response G [H, r] |phi>, progress :
  Direction:   3
       N       E                     dE             d eps       ncg     rms
RMM:   1    -0.397039867829E+03   -0.39704E+03    0.46522E+02 10031   0.416E+02
RMM:   2    -0.457221505037E+03   -0.60182E+02   -0.29069E+02 10492   0.506E+01
RMM:   3    -0.463045433297E+03   -0.58239E+01   -0.15949E+01 10835   0.134E+01
RMM:   4    -0.463396040227E+03   -0.35061E+00   -0.89753E-01 11992   0.300E+00
RMM:   5    -0.463416528073E+03   -0.20488E-01   -0.96077E-02 12081   0.828E-01
RMM:   6    -0.463418037229E+03   -0.15092E-02   -0.10961E-02 12129   0.245E-01
RMM:   7    -0.463418307877E+03   -0.27065E-03   -0.18323E-03 12427   0.771E-02
RMM:   8    -0.463418339376E+03   -0.31499E-04   -0.27626E-04 12822   0.266E-02
RMM:   9    -0.463418345562E+03   -0.61864E-05   -0.60305E-05 14197   0.104E-02
RMM:  10    -0.463418346621E+03   -0.10587E-05   -0.17996E-05 14881   0.557E-03
RMM:  11    -0.463418347037E+03   -0.41577E-06   -0.13037E-05 14883   0.435E-03
RMM:  12    -0.463418347355E+03   -0.31860E-06   -0.14507E-05 15095   0.401E-03
RMM:  13    -0.463418347800E+03   -0.44434E-06   -0.18677E-05 15095   0.394E-03
RMM:  14    -0.463418347483E+03    0.31679E-06   -0.15469E-05 15071   0.393E-03
 Linear response to external field (no local field effect), progress :
  Direction:   1
       N       E                     dE             d eps       ncg     rms          rms(c)
RMM:   1    -0.867592646382E+01   -0.86759E+01   -0.57464E+01 15235   0.762E+00
RMM:   2    -0.112294201290E+02   -0.25535E+01    0.65018E-01  9226   0.211E+00
RMM:   3    -0.113680817578E+02   -0.13866E+00   -0.92341E-02 11139   0.503E-01
RMM:   4    -0.113716154650E+02   -0.35337E-02   -0.43117E-03 11023   0.116E-01
RMM:   5    -0.113718147362E+02   -0.19927E-03   -0.55532E-04 11748   0.370E-02
RMM:   6    -0.113718379236E+02   -0.23187E-04   -0.53463E-05 11705   0.112E-02
RMM:   7    -0.113718405085E+02   -0.25849E-05   -0.61197E-06 11211   0.368E-03
RMM:   8    -0.113718408706E+02   -0.36207E-06   -0.78820E-07 10637   0.125E-03
RMM:   9    -0.113718409182E+02   -0.47637E-07   -0.15346E-07 10572   0.450E-04
RMM:  10    -0.113718409243E+02   -0.60864E-08   -0.51565E-08  9713   0.190E-04
 Linear response to external field (no local field effect), progress :
  Direction:   2
       N       E                     dE             d eps       ncg     rms          rms(c)
RMM:   1    -0.902920506321E+01   -0.90292E+01   -0.58457E+01 15191   0.773E+00
RMM:   2    -0.113169786727E+02   -0.22878E+01    0.74290E-01  9242   0.213E+00
RMM:   3    -0.114595024113E+02   -0.14252E+00   -0.92679E-02 11072   0.519E-01
RMM:   4    -0.114633851159E+02   -0.38827E-02   -0.46017E-03 10994   0.121E-01
RMM:   5    -0.114636086356E+02   -0.22352E-03   -0.69399E-04 11668   0.390E-02
RMM:   6    -0.114636329950E+02   -0.24359E-04   -0.54752E-05 11790   0.117E-02
RMM:   7    -0.114636356724E+02   -0.26774E-05   -0.71035E-06 11133   0.389E-03
RMM:   8    -0.114636360476E+02   -0.37523E-06   -0.80168E-07 10568   0.131E-03
RMM:   9    -0.114636360926E+02   -0.44976E-07   -0.17348E-07 10285   0.477E-04
RMM:  10    -0.114636360985E+02   -0.59061E-08   -0.66663E-08  9611   0.202E-04
 Linear response to external field (no local field effect), progress :
  Direction:   3
       N       E                     dE             d eps       ncg     rms          rms(c)
RMM:   1    -0.581837641171E+01   -0.58184E+01   -0.31361E+01 14883   0.707E+00
RMM:   2    -0.673808346384E+01   -0.91971E+00    0.11329E-01  8845   0.189E+00
RMM:   3    -0.679101624035E+01   -0.52933E-01   -0.50648E-02 10948   0.447E-01
RMM:   4    -0.679285125871E+01   -0.18350E-02   -0.19675E-03 11233   0.103E-01
RMM:   5    -0.679296556135E+01   -0.11430E-03   -0.31207E-04 11182   0.313E-02
RMM:   6    -0.679297576803E+01   -0.10207E-04   -0.20341E-05 11571   0.924E-03
RMM:   7    -0.679297679078E+01   -0.10228E-05   -0.27275E-06 10935   0.298E-03
RMM:   8    -0.679297691013E+01   -0.11934E-06   -0.22707E-07 10411   0.962E-04
RMM:   9    -0.679297692307E+01   -0.12942E-07   -0.56786E-08  9894   0.345E-04
RMM:  10    -0.679297692454E+01   -0.14672E-08   -0.29492E-08  9340   0.148E-04
 Linear response to external field, progress :
  Direction:   1
       N       E                     dE             d eps       ncg     rms          rms(c)
RMM:   1    -0.888238671284E+01   -0.88824E+01   -0.58259E+01 37145   0.763E+00
RMM:   2    -0.112733509701E+02   -0.23910E+01    0.69689E-01 22906   0.209E+00    0.701E+00
RMM:   3    -0.109948836427E+02    0.27847E+00   -0.26386E-01 25916   0.231E+00    0.372E+00
RMM:   4    -0.112365026149E+02   -0.24162E+00   -0.68187E-02 26400   0.218E+00    0.600E-01
RMM:   5    -0.113442239795E+02   -0.10772E+00   -0.13997E-02 27205   0.569E-01    0.867E-02
RMM:   6    -0.113516246509E+02   -0.74007E-02    0.95319E-03 28092   0.105E-01    0.429E-02
RMM:   7    -0.113500429717E+02    0.15817E-02    0.50719E-02 27540   0.428E-02    0.205E-02
RMM:   8    -0.113574703409E+02   -0.74274E-02   -0.16669E-02 28769   0.165E-02    0.793E-03
RMM:   9    -0.113565503030E+02    0.92004E-03   -0.36553E-04 26810   0.897E-03    0.268E-03
RMM:  10    -0.113567372295E+02   -0.18693E-03   -0.16427E-04 27735   0.272E-03    0.872E-04
RMM:  11    -0.113567588153E+02   -0.21586E-04    0.64013E-05 28174   0.106E-03    0.490E-04
RMM:  12    -0.113567928983E+02   -0.34083E-04   -0.35647E-05 28169   0.457E-04    0.212E-04
RMM:  13    -0.113568048100E+02   -0.11912E-04   -0.63181E-05 27430   0.266E-04    0.445E-05
RMM:  14    -0.113568026191E+02    0.21909E-05   -0.44303E-05 29221   0.121E-04    0.238E-05
RMM:  15    -0.113568008833E+02    0.17358E-05   -0.30730E-05 24039   0.834E-05    0.882E-06
 Linear response to external field, progress :
  Direction:   2
       N       E                     dE             d eps       ncg     rms          rms(c)
RMM:   1    -0.889352908282E+01   -0.88935E+01   -0.58370E+01 37378   0.763E+00
RMM:   2    -0.112793948465E+02   -0.23859E+01    0.64016E-01 22870   0.208E+00    0.701E+00
RMM:   3    -0.109939450171E+02    0.28545E+00   -0.24832E-01 26070   0.231E+00    0.371E+00
RMM:   4    -0.112549260795E+02   -0.26098E+00   -0.25227E-01 26530   0.218E+00    0.600E-01
RMM:   5    -0.113411145559E+02   -0.86188E-01    0.16729E-02 27364   0.569E-01    0.957E-02
RMM:   6    -0.113603563283E+02   -0.19242E-01   -0.83784E-02 27542   0.114E-01    0.576E-02
RMM:   7    -0.113493763417E+02    0.10980E-01    0.47430E-02 27118   0.481E-02    0.271E-02
RMM:   8    -0.113561314548E+02   -0.67551E-02   -0.36185E-03 28283   0.224E-02    0.801E-03
RMM:   9    -0.113569427727E+02   -0.81132E-03   -0.48851E-03 27329   0.917E-03    0.315E-03
RMM:  10    -0.113566822455E+02    0.26053E-03    0.90440E-05 28139   0.295E-03    0.136E-03
RMM:  11    -0.113567650407E+02   -0.82795E-04   -0.32897E-04 28399   0.121E-03    0.680E-04
RMM:  12    -0.113567738345E+02   -0.87937E-05    0.14773E-04 27872   0.706E-04    0.242E-04
RMM:  13    -0.113568019217E+02   -0.28087E-04   -0.47806E-05 28185   0.252E-04    0.780E-05
RMM:  14    -0.113568010717E+02    0.85006E-06   -0.31922E-05 28869   0.133E-04    0.315E-05
RMM:  15    -0.113568000128E+02    0.10589E-05   -0.27923E-05 25697   0.904E-05    0.107E-05
RMM:  16    -0.113567976969E+02    0.23159E-05   -0.45732E-06 22115   0.770E-05    0.501E-06
 Linear response to external field, progress :
  Direction:   3
       N       E                     dE             d eps       ncg     rms          rms(c)
RMM:   1    -0.581837641171E+01   -0.58184E+01   -0.31361E+01 14883   0.707E+00
RMM:   2    -0.673808346384E+01   -0.91971E+00    0.11329E-01  8845   0.189E+00    0.589E+00
RMM:   3     0.735658436674E+01    0.14095E+02    0.87618E+01 10304   0.376E+00    0.286E+00
RMM:   4     0.436070926789E+00   -0.69205E+01    0.18585E+01 10115   0.128E+00    0.109E+00
RMM:   5     0.185105929718E+01    0.14150E+01    0.30808E+01 10218   0.746E-01    0.689E-01
RMM:   6     0.930124087494E+00   -0.92094E+00    0.20737E+01 10082   0.526E-01    0.338E-01
RMM:   7    -0.252398782739E+00   -0.11825E+01    0.86868E+00 10867   0.186E-01    0.231E-01
RMM:   8    -0.304613069163E+00   -0.52214E-01    0.79991E+00 10435   0.152E-01    0.950E-02
RMM:   9    -0.664368516410E+00   -0.35976E+00    0.43723E+00 10503   0.873E-02    0.458E-02
RMM:  10    -0.105332085651E+01   -0.38895E+00    0.47136E-01 10427   0.430E-02    0.244E-02
RMM:  11    -0.108760681162E+01   -0.34286E-01    0.12862E-01 10811   0.172E-02    0.187E-02
RMM:  12    -0.109957422516E+01   -0.11967E-01    0.14138E-02  9858   0.258E-02    0.813E-03
RMM:  13    -0.109688840045E+01    0.26858E-02    0.45398E-02 10219   0.130E-02    0.527E-03
RMM:  14    -0.110231412582E+01   -0.54257E-02   -0.46745E-03 10656   0.923E-03    0.289E-03
RMM:  15    -0.110171055402E+01    0.60357E-03    0.23888E-03 10513   0.475E-03    0.173E-03
RMM:  16    -0.110133299106E+01    0.37756E-03    0.64245E-03 10731   0.346E-03    0.127E-03
RMM:  17    -0.110095397752E+01    0.37901E-03    0.10169E-02 10524   0.307E-03    0.536E-04
RMM:  18    -0.110221830540E+01   -0.12643E-02   -0.25566E-03 10980   0.116E-03    0.381E-04
RMM:  19    -0.110208769406E+01    0.13061E-03   -0.13788E-03 10698   0.156E-03    0.212E-04
RMM:  20    -0.110217661924E+01   -0.88925E-04   -0.23130E-03 10940   0.978E-04    0.130E-04
RMM:  21    -0.110207056278E+01    0.10606E-03   -0.12765E-03 10957   0.518E-04    0.740E-05
RMM:  22    -0.110202978079E+01    0.40782E-04   -0.88363E-04 10071   0.354E-04    0.242E-05
RMM:  23    -0.110207098565E+01   -0.41205E-04   -0.12936E-03  9656   0.118E-04    0.156E-05
RMM:  24    -0.110204410216E+01    0.26883E-04   -0.10215E-03  9322   0.686E-05    0.112E-05
RMM:  25    -0.110203940212E+01    0.47000E-05   -0.97301E-04  8436   0.434E-05    0.459E-06
