 vasp.5.4.1 24Jun15 (build Apr 13 2016 13:07:19) complex                        
  
 executed on           IFC91_ompi date 2019.09.13  19:36:44
 running on   28 total cores
 distrk:  each k-point on   28 cores,    1 groups
 distr:  one band on NCORES_PER_BAND=   1 cores,   28 groups


--------------------------------------------------------------------------------------------------------


 INCAR:
 POTCAR:    PAW_PBE Mo_sv_GW 05Dec2013            
 POTCAR:    PAW_PBE Se_GW 20Mar2012               

 ----------------------------------------------------------------------------- 
|                                                                             |
|           W    W    AA    RRRRR   N    N  II  N    N   GGGG   !!!           |
|           W    W   A  A   R    R  NN   N  II  NN   N  G    G  !!!           |
|           W    W  A    A  R    R  N N  N  II  N N  N  G       !!!           |
|           W WW W  AAAAAA  RRRRR   N  N N  II  N  N N  G  GGG   !            |
|           WW  WW  A    A  R   R   N   NN  II  N   NN  G    G                |
|           W    W  A    A  R    R  N    N  II  N    N   GGGG   !!!           |
|                                                                             |
|      For optimal performance we recommend to set                            |
|        NCORE= 4 - approx SQRT( number of cores)                             |
|      NCORE specifies how many cores store one orbital (NPAR=cpu/NCORE).     |
|      This setting can  greatly improve the performance of VASP for DFT.     |
|      The default, NPAR=number of cores might be grossly inefficient         |
|      on modern multi-core architectures or massively parallel machines.     |
|      Do your own testing !!!!                                               |
|      Unfortunately you need to use the default for GW and RPA calculations. |
|      (for HF NCORE is supported but not extensively tested yet)             |
|                                                                             |
 ----------------------------------------------------------------------------- 

 POTCAR:    PAW_PBE Mo_sv_GW 05Dec2013            
   VRHFIN =Mo: 4s4p5s4d                                                         
   LEXCH  = PE                                                                  
   EATOM  =  1861.5185 eV,  136.8178 Ry                                         
                                                                                
   TITEL  = PAW_PBE Mo_sv_GW 05Dec2013                                          
   LULTRA =        F    use ultrasoft PP ?                                      
   IUNSCR =        1    unscreen: 0-lin 1-nonlin 2-no                           
   RPACOR =    2.000    partial core radius                                     
   POMASS =   95.940; ZVAL   =   14.000    mass and valenz                      
   RCORE  =    2.100    outmost cutoff radius                                   
   RWIGS  =    2.100; RWIGS  =    1.111    wigner-seitz radius (au A)           
   ENMAX  =  344.914; ENMIN  =  258.686 eV                                      
   RCLOC  =    1.508    cutoff for local pot                                    
   LCOR   =        T    correct aug charges                                     
   LPAW   =        T    paw PP                                                  
   EAUG   =  964.741                                                            
   DEXC   =    0.000                                                            
   RMAX   =    2.149    core radius for proj-oper                               
   RAUG   =    1.300    factor for augmentation sphere                          
   RDEP   =    2.179    radius for radial grids                                 
   RDEPT  =    1.677    core radius for aug-charge                              
                                                                                
   Atomic configuration                                                         
   12 entries                                                                   
     n  l   j            E        occ.                                          
     1  0  0.50    -19816.9363   2.0000                                         
     2  0  0.50     -2796.7578   2.0000                                         
     2  1  1.50     -2499.7842   6.0000                                         
     3  0  0.50      -474.2095   2.0000                                         
     3  1  1.50      -376.9135   6.0000                                         
     3  2  2.50      -218.6898  10.0000                                         
     4  0  0.50       -62.1983   2.0000                                         
     4  0  0.50       -66.6685   0.0000                                         
     4  1  1.50       -36.4414   6.0000                                         
     4  1  1.50       -40.8175   0.0000                                         
     4  2  2.50        -2.3086   6.0000                                         
     4  3  2.50        -1.3606   0.0000                                         
   Description                                                                  
     l       E           TYP  RCUT    TYP  RCUT                                 
     0    -62.1983072     23  1.950                                             
     0     27.2116520     23  1.950                                             
     0    149.6640860     23  1.950                                             
     1    -36.4413666     23  1.800                                             
     1    -40.8174780     23  1.800                                             
     1     54.4233040     23  1.800                                             
     2     -2.3085597     23  2.000                                             
     2     -6.8029130     23  2.000                                             
     2    136.0582600     23  2.000                                             
     3     13.6058260     23  2.100                                             
     3     81.6349560     23  2.100                                             
  local pseudopotential read in
  partial core-charges read in
  partial kinetic energy density read in
  kinetic energy density of atom read in
  atomic valenz-charges read in
  non local Contribution for L=           0  read in
    real space projection operators read in
  non local Contribution for L=           0  read in
    real space projection operators read in
  non local Contribution for L=           0  read in
    real space projection operators read in
  non local Contribution for L=           1  read in
    real space projection operators read in
  non local Contribution for L=           1  read in
    real space projection operators read in
  non local Contribution for L=           1  read in
    real space projection operators read in
  non local Contribution for L=           2  read in
    real space projection operators read in
  non local Contribution for L=           2  read in
    real space projection operators read in
  non local Contribution for L=           2  read in
    real space projection operators read in
  non local Contribution for L=           3  read in
    real space projection operators read in
  non local Contribution for L=           3  read in
    real space projection operators read in
    PAW grid and wavefunctions read in
 
   number of l-projection  operators is LMAX  =          11
   number of lm-projection operators is LMMAX =          41
 
 POTCAR:    PAW_PBE Se_GW 20Mar2012               
   VRHFIN =Se: s2p4                                                             
   LEXCH  = PE                                                                  
   EATOM  =   257.1286 eV,   18.8984 Ry                                         
                                                                                
   TITEL  = PAW_PBE Se_GW 20Mar2012                                             
   LULTRA =        F    use ultrasoft PP ?                                      
   IUNSCR =        1    unscreen: 0-lin 1-nonlin 2-no                           
   RPACOR =    1.900    partial core radius                                     
   POMASS =   78.960; ZVAL   =    6.000    mass and valenz                      
   RCORE  =    2.100    outmost cutoff radius                                   
   RWIGS  =    2.200; RWIGS  =    1.164    wigner-seitz radius (au A)           
   ENMAX  =  211.555; ENMIN  =  158.666 eV                                      
   ICORE  =        3    local potential                                         
   LCOR   =        T    correct aug charges                                     
   LPAW   =        T    paw PP                                                  
   EAUG   =  446.842                                                            
   DEXC   =    0.000                                                            
   RMAX   =    2.147    core radius for proj-oper                               
   RAUG   =    1.300    factor for augmentation sphere                          
   RDEP   =    2.177    radius for radial grids                                 
   RDEPT  =    1.928    core radius for aug-charge                              
                                                                                
   Atomic configuration                                                         
   10 entries                                                                   
     n  l   j            E        occ.                                          
     1  0  0.50    -12503.4788   2.0000                                         
     2  0  0.50     -1606.9547   2.0000                                         
     2  1  1.50     -1413.3140   6.0000                                         
     3  0  0.50      -213.4885   2.0000                                         
     3  1  1.50      -152.9538   6.0000                                         
     3  2  2.50       -53.1221  10.0000                                         
     4  0  0.50       -17.2865   2.0000                                         
     4  1  0.50        -6.5110   4.0000                                         
     4  2  2.50        -6.8029   0.0000                                         
     4  3  2.50        -6.8029   0.0000                                         
   Description                                                                  
     l       E           TYP  RCUT    TYP  RCUT                                 
     0    -17.2865391     23  2.100                                             
     0     68.0291300     23  2.100                                             
     1     -6.5110285     23  2.100                                             
     1     81.6349560     23  2.100                                             
     2     -6.8029130     23  2.100                                             
     3     -1.3605826      7  2.100                                             
  local pseudopotential read in
  partial core-charges read in
  partial kinetic energy density read in
  kinetic energy density of atom read in
  atomic valenz-charges read in
  non local Contribution for L=           0  read in
    real space projection operators read in
  non local Contribution for L=           0  read in
    real space projection operators read in
  non local Contribution for L=           1  read in
    real space projection operators read in
  non local Contribution for L=           1  read in
    real space projection operators read in
  non local Contribution for L=           2  read in
    real space projection operators read in
    PAW grid and wavefunctions read in
 
   number of l-projection  operators is LMAX  =           5
   number of lm-projection operators is LMMAX =          13
 
  PAW_PBE Mo_sv_GW 05Dec2013            :
 energy of atom  1       EATOM=-1861.5185
 kinetic energy error for atom=    0.1105 (will be added to EATOM!!)
  PAW_PBE Se_GW 20Mar2012               :
 energy of atom  2       EATOM= -257.1286
 kinetic energy error for atom=    0.0034 (will be added to EATOM!!)
 
 
 POSCAR: Mo Se                                   
  positions in cartesian coordinates
  No initial velocities read in
 exchange correlation table for  LEXCH =        8
   RHO(1)=    0.500       N(1)  =     2000
   RHO(2)=  100.500       N(2)  =     4000
 


--------------------------------------------------------------------------------------------------------


 ion  position               nearest neighbor table
   1  0.167  0.333  0.306-   6 2.54   6 2.54   6 2.54   5 2.54   5 2.54   5 2.54
   2  0.833  0.667  0.435-   7 2.54   8 2.54   7 2.54   8 2.54   7 2.54   8 2.54
   3  0.167  0.333  0.565-   9 2.54  10 2.54   9 2.54  10 2.54   9 2.54  10 2.54
   4  0.833  0.667  0.694-  11 2.54  11 2.54  11 2.54  12 2.54  12 2.54  12 2.54
   5  0.833  0.667  0.340-   1 2.54   1 2.54   1 2.54
   6  0.833  0.667  0.273-   1 2.54   1 2.54   1 2.54
   7  0.167  0.333  0.469-   2 2.54   2 2.54   2 2.54
   8  0.167  0.333  0.402-   2 2.54   2 2.54   2 2.54
   9  0.833  0.667  0.598-   3 2.54   3 2.54   3 2.54
  10  0.833  0.667  0.531-   3 2.54   3 2.54   3 2.54
  11  0.167  0.333  0.727-   4 2.54   4 2.54   4 2.54
  12  0.167  0.333  0.660-   4 2.54   4 2.54   4 2.54
 
  LATTYP: Found a hexagonal cell.
 ALAT       =     3.3197487879
 C/A-ratio  =    15.0613806029
  
  Lattice vectors:
  
 A1 = (   3.3197487879,   0.0000000000,   0.0000000000)
 A2 = (  -1.6598743939,   2.8749867845,   0.0000000000)
 A3 = (   0.0000000000,   0.0000000000,  50.0000000000)


Analysis of symmetry for initial positions (statically):
=====================================================================
 Subroutine PRICEL returns:
 Original cell was already a primitive cell.
 

 Routine SETGRP: Setting up the symmetry group for a 
 hexagonal supercell.


 Subroutine GETGRP returns: Found 12 space group operations
 (whereof  4 operations were pure point group operations)
 out of a pool of 24 trial point group operations.


The static configuration has the point symmetry C_2h.
 The point group associated with its full space group is D_3d.


Analysis of symmetry for dynamics (positions and initial velocities):
=====================================================================
 Subroutine PRICEL returns:
 Original cell was already a primitive cell.
 

 Routine SETGRP: Setting up the symmetry group for a 
 hexagonal supercell.


 Subroutine GETGRP returns: Found 12 space group operations
 (whereof  4 operations were pure point group operations)
 out of a pool of 24 trial point group operations.


The dynamic configuration has the point symmetry C_2h.
 The point group associated with its full space group is D_3d.


 Subroutine INISYM returns: Found 12 space group operations
 (whereof  4 operations are pure point group operations),
 and found     1 'primitive' translations

 
 
 KPOINTS: KPOINTS created by Atomic Simulation Env

Automatic generation of k-mesh.
Space group operators:
 irot       det(A)        alpha          n_x          n_y          n_z        tau_x        tau_y        tau_z
    1     1.000000     0.000000     1.000000     0.000000     0.000000     0.000000     0.000000     0.000000
    2    -1.000000     0.000000     1.000000     0.000000     0.000000     0.000000     0.000000     0.000000
    3     1.000000   180.000000     1.000000     0.000000     0.000000     0.000000     0.000000     0.000000
    4    -1.000000   180.000000     1.000000     0.000000     0.000000     0.000000     0.000000     0.000000
    5     1.000000   120.000000     0.000000     0.000000    -1.000000     0.500000     0.500000     0.000000
    6    -1.000000   120.000000     0.000000     0.000000    -1.000000     0.500000     0.500000     0.000000
    7     1.000000   120.000000     0.000000     0.000000     1.000000     0.000000     0.500000     0.000000
    8    -1.000000   120.000000     0.000000     0.000000     1.000000     0.000000     0.500000     0.000000
    9     1.000000   180.000000     0.500000    -0.866025     0.000000     0.000000     0.500000     0.000000
   10    -1.000000   180.000000     0.500000    -0.866025     0.000000     0.000000     0.500000     0.000000
   11     1.000000   180.000000    -0.500000    -0.866025     0.000000     0.500000     0.500000     0.000000
   12    -1.000000   180.000000    -0.500000    -0.866025     0.000000     0.500000     0.500000     0.000000
 
 Subroutine IBZKPT returns following result:
 ===========================================
 
 Found     37 irreducible k-points:
 
 Following reciprocal coordinates:
            Coordinates               Weight
  0.000000  0.000000  0.000000      1.000000
  0.055556  0.000000  0.000000      6.000000
  0.111111  0.000000  0.000000      6.000000
  0.166667  0.000000  0.000000      6.000000
  0.222222  0.000000  0.000000      6.000000
  0.277778  0.000000  0.000000      6.000000
  0.333333  0.000000  0.000000      6.000000
  0.388889  0.000000  0.000000      6.000000
  0.444444  0.000000  0.000000      6.000000
  0.500000  0.000000  0.000000      3.000000
  0.055556  0.055556  0.000000      6.000000
  0.111111  0.055556  0.000000     12.000000
  0.166667  0.055556  0.000000     12.000000
  0.222222  0.055556  0.000000     12.000000
  0.277778  0.055556  0.000000     12.000000
  0.333333  0.055556  0.000000     12.000000
  0.388889  0.055556  0.000000     12.000000
  0.444444  0.055556  0.000000     12.000000
  0.111111  0.111111  0.000000      6.000000
  0.166667  0.111111  0.000000     12.000000
  0.222222  0.111111  0.000000     12.000000
  0.277778  0.111111  0.000000     12.000000
  0.333333  0.111111  0.000000     12.000000
  0.388889  0.111111  0.000000     12.000000
  0.444444  0.111111  0.000000      6.000000
  0.166667  0.166667  0.000000      6.000000
  0.222222  0.166667  0.000000     12.000000
  0.277778  0.166667  0.000000     12.000000
  0.333333  0.166667  0.000000     12.000000
  0.388889  0.166667  0.000000     12.000000
  0.222222  0.222222  0.000000      6.000000
  0.277778  0.222222  0.000000     12.000000
  0.333333  0.222222  0.000000     12.000000
  0.388889  0.222222  0.000000      6.000000
  0.277778  0.277778  0.000000      6.000000
  0.333333  0.277778  0.000000     12.000000
  0.333333  0.333333  0.000000      2.000000
 
 Following cartesian coordinates:
            Coordinates               Weight
  0.000000  0.000000  0.000000      1.000000
  0.016735  0.009662  0.000000      6.000000
  0.033470  0.019324  0.000000      6.000000
  0.050205  0.028986  0.000000      6.000000
  0.066939  0.038648  0.000000      6.000000
  0.083674  0.048309  0.000000      6.000000
  0.100409  0.057971  0.000000      6.000000
  0.117144  0.067633  0.000000      6.000000
  0.133879  0.077295  0.000000      6.000000
  0.150614  0.086957  0.000000      3.000000
  0.016735  0.028986  0.000000      6.000000
  0.033470  0.038648  0.000000     12.000000
  0.050205  0.048309  0.000000     12.000000
  0.066939  0.057971  0.000000     12.000000
  0.083674  0.067633  0.000000     12.000000
  0.100409  0.077295  0.000000     12.000000
  0.117144  0.086957  0.000000     12.000000
  0.133879  0.096619  0.000000     12.000000
  0.033470  0.057971  0.000000      6.000000
  0.050205  0.067633  0.000000     12.000000
  0.066939  0.077295  0.000000     12.000000
  0.083674  0.086957  0.000000     12.000000
  0.100409  0.096619  0.000000     12.000000
  0.117144  0.106281  0.000000     12.000000
  0.133879  0.115943  0.000000      6.000000
  0.050205  0.086957  0.000000      6.000000
  0.066939  0.096619  0.000000     12.000000
  0.083674  0.106281  0.000000     12.000000
  0.100409  0.115943  0.000000     12.000000
  0.117144  0.125604  0.000000     12.000000
  0.066939  0.115943  0.000000      6.000000
  0.083674  0.125604  0.000000     12.000000
  0.100409  0.135266  0.000000     12.000000
  0.117144  0.144928  0.000000      6.000000
  0.083674  0.144928  0.000000      6.000000
  0.100409  0.154590  0.000000     12.000000
  0.100409  0.173914  0.000000      2.000000
 
 TETIRR: Found    169 inequivalent tetrahedra from     1944
 
 Subroutine IBZKPT_HF returns following result:
 ==============================================
 
 Found    324 k-points in 1st BZ
 the following    324 k-points will be used (e.g. in the exchange kernel)
 Following reciprocal coordinates:   # in IRBZ
  0.000000  0.000000  0.000000    0.00308642   1 t-inv F
  0.055556  0.000000  0.000000    0.00308642   2 t-inv F
  0.111111  0.000000  0.000000    0.00308642   3 t-inv F
  0.166667  0.000000  0.000000    0.00308642   4 t-inv F
  0.222222  0.000000  0.000000    0.00308642   5 t-inv F
  0.277778  0.000000  0.000000    0.00308642   6 t-inv F
  0.333333  0.000000  0.000000    0.00308642   7 t-inv F
  0.388889  0.000000  0.000000    0.00308642   8 t-inv F
  0.444444  0.000000  0.000000    0.00308642   9 t-inv F
  0.500000  0.000000  0.000000    0.00308642  10 t-inv F
  0.055556  0.055556  0.000000    0.00308642  11 t-inv F
  0.111111  0.055556  0.000000    0.00308642  12 t-inv F
  0.166667  0.055556  0.000000    0.00308642  13 t-inv F
  0.222222  0.055556  0.000000    0.00308642  14 t-inv F
  0.277778  0.055556  0.000000    0.00308642  15 t-inv F
  0.333333  0.055556  0.000000    0.00308642  16 t-inv F
  0.388889  0.055556  0.000000    0.00308642  17 t-inv F
  0.444444  0.055556  0.000000    0.00308642  18 t-inv F
  0.111111  0.111111  0.000000    0.00308642  19 t-inv F
  0.166667  0.111111  0.000000    0.00308642  20 t-inv F
  0.222222  0.111111  0.000000    0.00308642  21 t-inv F
  0.277778  0.111111  0.000000    0.00308642  22 t-inv F
  0.333333  0.111111  0.000000    0.00308642  23 t-inv F
  0.388889  0.111111  0.000000    0.00308642  24 t-inv F
  0.444444  0.111111  0.000000    0.00308642  25 t-inv F
  0.166667  0.166667  0.000000    0.00308642  26 t-inv F
  0.222222  0.166667  0.000000    0.00308642  27 t-inv F
  0.277778  0.166667  0.000000    0.00308642  28 t-inv F
  0.333333  0.166667  0.000000    0.00308642  29 t-inv F
  0.388889  0.166667  0.000000    0.00308642  30 t-inv F
  0.222222  0.222222  0.000000    0.00308642  31 t-inv F
  0.277778  0.222222  0.000000    0.00308642  32 t-inv F
  0.333333  0.222222  0.000000    0.00308642  33 t-inv F
  0.388889  0.222222  0.000000    0.00308642  34 t-inv F
  0.277778  0.277778  0.000000    0.00308642  35 t-inv F
  0.333333  0.277778  0.000000    0.00308642  36 t-inv F
  0.333333  0.333333  0.000000    0.00308642  37 t-inv F
 -0.055556 -0.000000 -0.000000    0.00308642   2 t-inv F
  0.055556 -0.055556 -0.000000    0.00308642   2 t-inv F
 -0.055556  0.055556  0.000000    0.00308642   2 t-inv F
  0.000000 -0.055556  0.000000    0.00308642   2 t-inv F
 -0.000000  0.055556 -0.000000    0.00308642   2 t-inv F
 -0.111111 -0.000000 -0.000000    0.00308642   3 t-inv F
  0.111111 -0.111111 -0.000000    0.00308642   3 t-inv F
 -0.111111  0.111111  0.000000    0.00308642   3 t-inv F
  0.000000 -0.111111  0.000000    0.00308642   3 t-inv F
 -0.000000  0.111111 -0.000000    0.00308642   3 t-inv F
 -0.166667 -0.000000 -0.000000    0.00308642   4 t-inv F
  0.166667 -0.166667 -0.000000    0.00308642   4 t-inv F
 -0.166667  0.166667  0.000000    0.00308642   4 t-inv F
  0.000000 -0.166667  0.000000    0.00308642   4 t-inv F
 -0.000000  0.166667 -0.000000    0.00308642   4 t-inv F
 -0.222222 -0.000000 -0.000000    0.00308642   5 t-inv F
  0.222222 -0.222222 -0.000000    0.00308642   5 t-inv F
 -0.222222  0.222222  0.000000    0.00308642   5 t-inv F
  0.000000 -0.222222  0.000000    0.00308642   5 t-inv F
 -0.000000  0.222222 -0.000000    0.00308642   5 t-inv F
 -0.277778 -0.000000 -0.000000    0.00308642   6 t-inv F
  0.277778 -0.277778 -0.000000    0.00308642   6 t-inv F
 -0.277778  0.277778  0.000000    0.00308642   6 t-inv F
  0.000000 -0.277778  0.000000    0.00308642   6 t-inv F
 -0.000000  0.277778 -0.000000    0.00308642   6 t-inv F
 -0.333333 -0.000000 -0.000000    0.00308642   7 t-inv F
  0.333333 -0.333333 -0.000000    0.00308642   7 t-inv F
 -0.333333  0.333333  0.000000    0.00308642   7 t-inv F
  0.000000 -0.333333  0.000000    0.00308642   7 t-inv F
 -0.000000  0.333333 -0.000000    0.00308642   7 t-inv F
 -0.388889 -0.000000 -0.000000    0.00308642   8 t-inv F
  0.388889 -0.388889 -0.000000    0.00308642   8 t-inv F
 -0.388889  0.388889  0.000000    0.00308642   8 t-inv F
  0.000000 -0.388889  0.000000    0.00308642   8 t-inv F
 -0.000000  0.388889 -0.000000    0.00308642   8 t-inv F
 -0.444444 -0.000000 -0.000000    0.00308642   9 t-inv F
  0.444444 -0.444444 -0.000000    0.00308642   9 t-inv F
 -0.444444  0.444444  0.000000    0.00308642   9 t-inv F
  0.000000 -0.444444  0.000000    0.00308642   9 t-inv F
 -0.000000  0.444444 -0.000000    0.00308642   9 t-inv F
  0.500000 -0.500000 -0.000000    0.00308642  10 t-inv F
  0.000000 -0.500000  0.000000    0.00308642  10 t-inv F
 -0.055556 -0.055556 -0.000000    0.00308642  11 t-inv F
  0.055556 -0.111111 -0.000000    0.00308642  11 t-inv F
 -0.055556  0.111111  0.000000    0.00308642  11 t-inv F
 -0.111111  0.055556  0.000000    0.00308642  11 t-inv F
  0.111111 -0.055556 -0.000000    0.00308642  11 t-inv F
 -0.111111 -0.055556 -0.000000    0.00308642  12 t-inv F
  0.111111 -0.166667 -0.000000    0.00308642  12 t-inv F
 -0.111111  0.166667  0.000000    0.00308642  12 t-inv F
 -0.166667  0.111111  0.000000    0.00308642  12 t-inv F
  0.166667 -0.111111 -0.000000    0.00308642  12 t-inv F
  0.055556 -0.166667  0.000000    0.00308642  12 t-inv F
 -0.055556  0.166667 -0.000000    0.00308642  12 t-inv F
 -0.166667  0.055556 -0.000000    0.00308642  12 t-inv F
  0.166667 -0.055556  0.000000    0.00308642  12 t-inv F
  0.055556  0.111111 -0.000000    0.00308642  12 t-inv F
 -0.055556 -0.111111  0.000000    0.00308642  12 t-inv F
 -0.166667 -0.055556 -0.000000    0.00308642  13 t-inv F
  0.166667 -0.222222 -0.000000    0.00308642  13 t-inv F
 -0.166667  0.222222  0.000000    0.00308642  13 t-inv F
 -0.222222  0.166667  0.000000    0.00308642  13 t-inv F
  0.222222 -0.166667 -0.000000    0.00308642  13 t-inv F
  0.055556 -0.222222  0.000000    0.00308642  13 t-inv F
 -0.055556  0.222222 -0.000000    0.00308642  13 t-inv F
 -0.222222  0.055556 -0.000000    0.00308642  13 t-inv F
  0.222222 -0.055556  0.000000    0.00308642  13 t-inv F
  0.055556  0.166667 -0.000000    0.00308642  13 t-inv F
 -0.055556 -0.166667  0.000000    0.00308642  13 t-inv F
 -0.222222 -0.055556 -0.000000    0.00308642  14 t-inv F
  0.222222 -0.277778 -0.000000    0.00308642  14 t-inv F
 -0.222222  0.277778  0.000000    0.00308642  14 t-inv F
 -0.277778  0.222222  0.000000    0.00308642  14 t-inv F
  0.277778 -0.222222 -0.000000    0.00308642  14 t-inv F
  0.055556 -0.277778  0.000000    0.00308642  14 t-inv F
 -0.055556  0.277778 -0.000000    0.00308642  14 t-inv F
 -0.277778  0.055556 -0.000000    0.00308642  14 t-inv F
  0.277778 -0.055556  0.000000    0.00308642  14 t-inv F
  0.055556  0.222222 -0.000000    0.00308642  14 t-inv F
 -0.055556 -0.222222  0.000000    0.00308642  14 t-inv F
 -0.277778 -0.055556 -0.000000    0.00308642  15 t-inv F
  0.277778 -0.333333 -0.000000    0.00308642  15 t-inv F
 -0.277778  0.333333  0.000000    0.00308642  15 t-inv F
 -0.333333  0.277778  0.000000    0.00308642  15 t-inv F
  0.333333 -0.277778 -0.000000    0.00308642  15 t-inv F
  0.055556 -0.333333  0.000000    0.00308642  15 t-inv F
 -0.055556  0.333333 -0.000000    0.00308642  15 t-inv F
 -0.333333  0.055556 -0.000000    0.00308642  15 t-inv F
  0.333333 -0.055556  0.000000    0.00308642  15 t-inv F
  0.055556  0.277778 -0.000000    0.00308642  15 t-inv F
 -0.055556 -0.277778  0.000000    0.00308642  15 t-inv F
 -0.333333 -0.055556 -0.000000    0.00308642  16 t-inv F
  0.333333 -0.388889 -0.000000    0.00308642  16 t-inv F
 -0.333333  0.388889  0.000000    0.00308642  16 t-inv F
 -0.388889  0.333333  0.000000    0.00308642  16 t-inv F
  0.388889 -0.333333 -0.000000    0.00308642  16 t-inv F
  0.055556 -0.388889  0.000000    0.00308642  16 t-inv F
 -0.055556  0.388889 -0.000000    0.00308642  16 t-inv F
 -0.388889  0.055556 -0.000000    0.00308642  16 t-inv F
  0.388889 -0.055556  0.000000    0.00308642  16 t-inv F
  0.055556  0.333333 -0.000000    0.00308642  16 t-inv F
 -0.055556 -0.333333  0.000000    0.00308642  16 t-inv F
 -0.388889 -0.055556 -0.000000    0.00308642  17 t-inv F
  0.388889 -0.444444 -0.000000    0.00308642  17 t-inv F
 -0.388889  0.444444  0.000000    0.00308642  17 t-inv F
 -0.444444  0.388889  0.000000    0.00308642  17 t-inv F
  0.444444 -0.388889 -0.000000    0.00308642  17 t-inv F
  0.055556 -0.444444  0.000000    0.00308642  17 t-inv F
 -0.055556  0.444444 -0.000000    0.00308642  17 t-inv F
 -0.444444  0.055556 -0.000000    0.00308642  17 t-inv F
  0.444444 -0.055556  0.000000    0.00308642  17 t-inv F
  0.055556  0.388889 -0.000000    0.00308642  17 t-inv F
 -0.055556 -0.388889  0.000000    0.00308642  17 t-inv F
 -0.444444 -0.055556 -0.000000    0.00308642  18 t-inv F
  0.444444 -0.500000 -0.000000    0.00308642  18 t-inv F
 -0.444444  0.500000  0.000000    0.00308642  18 t-inv F
 -0.500000  0.444444  0.000000    0.00308642  18 t-inv F
  0.500000 -0.444444 -0.000000    0.00308642  18 t-inv F
  0.055556 -0.500000  0.000000    0.00308642  18 t-inv F
 -0.055556  0.500000 -0.000000    0.00308642  18 t-inv F
 -0.500000  0.055556 -0.000000    0.00308642  18 t-inv F
  0.500000 -0.055556  0.000000    0.00308642  18 t-inv F
  0.055556  0.444444 -0.000000    0.00308642  18 t-inv F
 -0.055556 -0.444444  0.000000    0.00308642  18 t-inv F
 -0.111111 -0.111111 -0.000000    0.00308642  19 t-inv F
  0.111111 -0.222222 -0.000000    0.00308642  19 t-inv F
 -0.111111  0.222222  0.000000    0.00308642  19 t-inv F
 -0.222222  0.111111  0.000000    0.00308642  19 t-inv F
  0.222222 -0.111111 -0.000000    0.00308642  19 t-inv F
 -0.166667 -0.111111 -0.000000    0.00308642  20 t-inv F
  0.166667 -0.277778 -0.000000    0.00308642  20 t-inv F
 -0.166667  0.277778  0.000000    0.00308642  20 t-inv F
 -0.277778  0.166667  0.000000    0.00308642  20 t-inv F
  0.277778 -0.166667 -0.000000    0.00308642  20 t-inv F
  0.111111 -0.277778  0.000000    0.00308642  20 t-inv F
 -0.111111  0.277778 -0.000000    0.00308642  20 t-inv F
 -0.277778  0.111111 -0.000000    0.00308642  20 t-inv F
  0.277778 -0.111111  0.000000    0.00308642  20 t-inv F
  0.111111  0.166667 -0.000000    0.00308642  20 t-inv F
 -0.111111 -0.166667  0.000000    0.00308642  20 t-inv F
 -0.222222 -0.111111 -0.000000    0.00308642  21 t-inv F
  0.222222 -0.333333 -0.000000    0.00308642  21 t-inv F
 -0.222222  0.333333  0.000000    0.00308642  21 t-inv F
 -0.333333  0.222222  0.000000    0.00308642  21 t-inv F
  0.333333 -0.222222 -0.000000    0.00308642  21 t-inv F
  0.111111 -0.333333  0.000000    0.00308642  21 t-inv F
 -0.111111  0.333333 -0.000000    0.00308642  21 t-inv F
 -0.333333  0.111111 -0.000000    0.00308642  21 t-inv F
  0.333333 -0.111111  0.000000    0.00308642  21 t-inv F
  0.111111  0.222222 -0.000000    0.00308642  21 t-inv F
 -0.111111 -0.222222  0.000000    0.00308642  21 t-inv F
 -0.277778 -0.111111 -0.000000    0.00308642  22 t-inv F
  0.277778 -0.388889 -0.000000    0.00308642  22 t-inv F
 -0.277778  0.388889  0.000000    0.00308642  22 t-inv F
 -0.388889  0.277778  0.000000    0.00308642  22 t-inv F
  0.388889 -0.277778 -0.000000    0.00308642  22 t-inv F
  0.111111 -0.388889  0.000000    0.00308642  22 t-inv F
 -0.111111  0.388889 -0.000000    0.00308642  22 t-inv F
 -0.388889  0.111111 -0.000000    0.00308642  22 t-inv F
  0.388889 -0.111111  0.000000    0.00308642  22 t-inv F
  0.111111  0.277778 -0.000000    0.00308642  22 t-inv F
 -0.111111 -0.277778  0.000000    0.00308642  22 t-inv F
 -0.333333 -0.111111 -0.000000    0.00308642  23 t-inv F
  0.333333 -0.444444 -0.000000    0.00308642  23 t-inv F
 -0.333333  0.444444  0.000000    0.00308642  23 t-inv F
 -0.444444  0.333333  0.000000    0.00308642  23 t-inv F
  0.444444 -0.333333 -0.000000    0.00308642  23 t-inv F
  0.111111 -0.444444  0.000000    0.00308642  23 t-inv F
 -0.111111  0.444444 -0.000000    0.00308642  23 t-inv F
 -0.444444  0.111111 -0.000000    0.00308642  23 t-inv F
  0.444444 -0.111111  0.000000    0.00308642  23 t-inv F
  0.111111  0.333333 -0.000000    0.00308642  23 t-inv F
 -0.111111 -0.333333  0.000000    0.00308642  23 t-inv F
 -0.388889 -0.111111 -0.000000    0.00308642  24 t-inv F
  0.388889 -0.500000 -0.000000    0.00308642  24 t-inv F
 -0.388889  0.500000  0.000000    0.00308642  24 t-inv F
 -0.500000  0.388889  0.000000    0.00308642  24 t-inv F
  0.500000 -0.388889 -0.000000    0.00308642  24 t-inv F
  0.111111 -0.500000  0.000000    0.00308642  24 t-inv F
 -0.111111  0.500000 -0.000000    0.00308642  24 t-inv F
 -0.500000  0.111111 -0.000000    0.00308642  24 t-inv F
  0.500000 -0.111111  0.000000    0.00308642  24 t-inv F
  0.111111  0.388889 -0.000000    0.00308642  24 t-inv F
 -0.111111 -0.388889  0.000000    0.00308642  24 t-inv F
 -0.444444 -0.111111 -0.000000    0.00308642  25 t-inv F
  0.444444 -0.555556 -0.000000    0.00308642  25 t-inv F
 -0.444444  0.555556  0.000000    0.00308642  25 t-inv F
  0.111111 -0.555556  0.000000    0.00308642  25 t-inv F
 -0.111111  0.555556 -0.000000    0.00308642  25 t-inv F
 -0.166667 -0.166667 -0.000000    0.00308642  26 t-inv F
  0.166667 -0.333333 -0.000000    0.00308642  26 t-inv F
 -0.166667  0.333333  0.000000    0.00308642  26 t-inv F
 -0.333333  0.166667  0.000000    0.00308642  26 t-inv F
  0.333333 -0.166667 -0.000000    0.00308642  26 t-inv F
 -0.222222 -0.166667 -0.000000    0.00308642  27 t-inv F
  0.222222 -0.388889 -0.000000    0.00308642  27 t-inv F
 -0.222222  0.388889  0.000000    0.00308642  27 t-inv F
 -0.388889  0.222222  0.000000    0.00308642  27 t-inv F
  0.388889 -0.222222 -0.000000    0.00308642  27 t-inv F
  0.166667 -0.388889  0.000000    0.00308642  27 t-inv F
 -0.166667  0.388889 -0.000000    0.00308642  27 t-inv F
 -0.388889  0.166667 -0.000000    0.00308642  27 t-inv F
  0.388889 -0.166667  0.000000    0.00308642  27 t-inv F
  0.166667  0.222222 -0.000000    0.00308642  27 t-inv F
 -0.166667 -0.222222  0.000000    0.00308642  27 t-inv F
 -0.277778 -0.166667 -0.000000    0.00308642  28 t-inv F
  0.277778 -0.444444 -0.000000    0.00308642  28 t-inv F
 -0.277778  0.444444  0.000000    0.00308642  28 t-inv F
 -0.444444  0.277778  0.000000    0.00308642  28 t-inv F
  0.444444 -0.277778 -0.000000    0.00308642  28 t-inv F
  0.166667 -0.444444  0.000000    0.00308642  28 t-inv F
 -0.166667  0.444444 -0.000000    0.00308642  28 t-inv F
 -0.444444  0.166667 -0.000000    0.00308642  28 t-inv F
  0.444444 -0.166667  0.000000    0.00308642  28 t-inv F
  0.166667  0.277778 -0.000000    0.00308642  28 t-inv F
 -0.166667 -0.277778  0.000000    0.00308642  28 t-inv F
 -0.333333 -0.166667 -0.000000    0.00308642  29 t-inv F
  0.333333 -0.500000 -0.000000    0.00308642  29 t-inv F
 -0.333333  0.500000  0.000000    0.00308642  29 t-inv F
 -0.500000  0.333333  0.000000    0.00308642  29 t-inv F
  0.500000 -0.333333 -0.000000    0.00308642  29 t-inv F
  0.166667 -0.500000  0.000000    0.00308642  29 t-inv F
 -0.166667  0.500000 -0.000000    0.00308642  29 t-inv F
 -0.500000  0.166667 -0.000000    0.00308642  29 t-inv F
  0.500000 -0.166667  0.000000    0.00308642  29 t-inv F
  0.166667  0.333333 -0.000000    0.00308642  29 t-inv F
 -0.166667 -0.333333  0.000000    0.00308642  29 t-inv F
 -0.388889 -0.166667 -0.000000    0.00308642  30 t-inv F
  0.388889 -0.555556 -0.000000    0.00308642  30 t-inv F
 -0.388889  0.555556  0.000000    0.00308642  30 t-inv F
 -0.555556  0.388889  0.000000    0.00308642  30 t-inv F
  0.555556 -0.388889 -0.000000    0.00308642  30 t-inv F
  0.166667 -0.555556  0.000000    0.00308642  30 t-inv F
 -0.166667  0.555556 -0.000000    0.00308642  30 t-inv F
 -0.555556  0.166667 -0.000000    0.00308642  30 t-inv F
  0.555556 -0.166667  0.000000    0.00308642  30 t-inv F
  0.166667  0.388889 -0.000000    0.00308642  30 t-inv F
 -0.166667 -0.388889  0.000000    0.00308642  30 t-inv F
 -0.222222 -0.222222 -0.000000    0.00308642  31 t-inv F
  0.222222 -0.444444 -0.000000    0.00308642  31 t-inv F
 -0.222222  0.444444  0.000000    0.00308642  31 t-inv F
 -0.444444  0.222222  0.000000    0.00308642  31 t-inv F
  0.444444 -0.222222 -0.000000    0.00308642  31 t-inv F
 -0.277778 -0.222222 -0.000000    0.00308642  32 t-inv F
  0.277778 -0.500000 -0.000000    0.00308642  32 t-inv F
 -0.277778  0.500000  0.000000    0.00308642  32 t-inv F
 -0.500000  0.277778  0.000000    0.00308642  32 t-inv F
  0.500000 -0.277778 -0.000000    0.00308642  32 t-inv F
  0.222222 -0.500000  0.000000    0.00308642  32 t-inv F
 -0.222222  0.500000 -0.000000    0.00308642  32 t-inv F
 -0.500000  0.222222 -0.000000    0.00308642  32 t-inv F
  0.500000 -0.222222  0.000000    0.00308642  32 t-inv F
  0.222222  0.277778 -0.000000    0.00308642  32 t-inv F
 -0.222222 -0.277778  0.000000    0.00308642  32 t-inv F
 -0.333333 -0.222222 -0.000000    0.00308642  33 t-inv F
  0.333333 -0.555556 -0.000000    0.00308642  33 t-inv F
 -0.333333  0.555556  0.000000    0.00308642  33 t-inv F
 -0.555556  0.333333  0.000000    0.00308642  33 t-inv F
  0.555556 -0.333333 -0.000000    0.00308642  33 t-inv F
  0.222222 -0.555556  0.000000    0.00308642  33 t-inv F
 -0.222222  0.555556 -0.000000    0.00308642  33 t-inv F
 -0.555556  0.222222 -0.000000    0.00308642  33 t-inv F
  0.555556 -0.222222  0.000000    0.00308642  33 t-inv F
  0.222222  0.333333 -0.000000    0.00308642  33 t-inv F
 -0.222222 -0.333333  0.000000    0.00308642  33 t-inv F
 -0.388889 -0.222222 -0.000000    0.00308642  34 t-inv F
  0.388889 -0.611111 -0.000000    0.00308642  34 t-inv F
 -0.388889  0.611111  0.000000    0.00308642  34 t-inv F
  0.222222 -0.611111  0.000000    0.00308642  34 t-inv F
 -0.222222  0.611111 -0.000000    0.00308642  34 t-inv F
 -0.277778 -0.277778 -0.000000    0.00308642  35 t-inv F
  0.277778 -0.555556 -0.000000    0.00308642  35 t-inv F
 -0.277778  0.555556  0.000000    0.00308642  35 t-inv F
 -0.555556  0.277778  0.000000    0.00308642  35 t-inv F
  0.555556 -0.277778 -0.000000    0.00308642  35 t-inv F
 -0.333333 -0.277778 -0.000000    0.00308642  36 t-inv F
  0.333333 -0.611111 -0.000000    0.00308642  36 t-inv F
 -0.333333  0.611111  0.000000    0.00308642  36 t-inv F
 -0.611111  0.333333  0.000000    0.00308642  36 t-inv F
  0.611111 -0.333333 -0.000000    0.00308642  36 t-inv F
  0.277778 -0.611111  0.000000    0.00308642  36 t-inv F
 -0.277778  0.611111 -0.000000    0.00308642  36 t-inv F
 -0.611111  0.277778 -0.000000    0.00308642  36 t-inv F
  0.611111 -0.277778  0.000000    0.00308642  36 t-inv F
  0.277778  0.333333 -0.000000    0.00308642  36 t-inv F
 -0.277778 -0.333333  0.000000    0.00308642  36 t-inv F
 -0.333333 -0.333333 -0.000000    0.00308642  37 t-inv F


--------------------------------------------------------------------------------------------------------




 Dimension of arrays:
   k-points           NKPTS =     37   k-points in BZ     NKDIM =     37   number of bands    NBANDS=     84
   number of dos      NEDOS =    301   number of ions     NIONS =     12
   non local maximal  LDIM  =     11   non local SUM 2l+1 LMDIM =     41
   total plane-waves  NPLWV = 128000
   max r-space proj   IRMAX =      1   max aug-charges    IRDMAX=  11895
   dimension x,y,z NGX =    20 NGY =   20 NGZ =  320
   dimension x,y,z NGXF=    40 NGYF=   40 NGZF=  640
   support grid    NGXF=    40 NGYF=   40 NGZF=  640
   ions per type =               4   8
 NGX,Y,Z   is equivalent  to a cutoff of  10.02, 10.02, 10.64 a.u.
 NGXF,Y,Z  is equivalent  to a cutoff of  20.03, 20.03, 21.28 a.u.


 I would recommend the setting:
   dimension x,y,z NGX =    20 NGY =   20 NGZ =  303
 SYSTEM =  unknown system                          
 POSCAR =  Mo Se                                   

 Startparameter for this run:
   NWRITE =      2    write-flag & timer
   PREC   = accura    normal or accurate (medium, high low for compatibility)
   ISTART =      0    job   : 0-new  1-cont  2-samecut
   ICHARG =      2    charge: 1-file 2-atom 10-const
   ISPIN  =      1    spin polarized calculation?
   LNONCOLLINEAR =      F non collinear calculations
   LSORBIT =      F    spin-orbit coupling
   INIWAV =      1    electr: 0-lowe 1-rand  2-diag
   LASPH  =      F    aspherical Exc in radial PAW
   METAGGA=      F    non-selfconsistent MetaGGA calc.

 Electronic Relaxation 1
   ENCUT  =  344.9 eV  25.35 Ry    5.03 a.u.   5.03  5.03 75.72*2*pi/ulx,y,z
   ENINI  =  344.9     initial cutoff
   ENAUG  =  964.7 eV  augmentation charge cutoff
   NELM   =     60;   NELMIN=  5; NELMDL= -5     # of ELM steps 
   EDIFF  = 0.1E-07   stopping-criterion for ELM
   LREAL  =      F    real-space projection
   NLSPLINE    = F    spline interpolate recip. space projectors
   LCOMPAT=      F    compatible to vasp.4.4
   GGA_COMPAT  = T    GGA compatible to vasp.4.4-vasp.4.6
   LMAXPAW     = -100 max onsite density
   LMAXMIX     =    2 max onsite mixed and CHGCAR
   VOSKOWN=      0    Vosko Wilk Nusair interpolation
   ROPT   =    0.00000   0.00000
 Ionic relaxation
   EDIFFG = 0.1E-06   stopping-criterion for IOM
   NSW    =      0    number of steps for IOM
   NBLOCK =      1;   KBLOCK =      1    inner block; outer block 
   IBRION =     -1    ionic relax: 0-MD 1-quasi-New 2-CG
   NFREE  =      0    steps in history (QN), initial steepest desc. (CG)
   ISIF   =      2    stress and relaxation
   IWAVPR =     10    prediction:  0-non 1-charg 2-wave 3-comb
   ISYM   =      2    0-nonsym 1-usesym 2-fastsym
   LCORR  =      T    Harris-Foulkes like correction to forces

   POTIM  = 0.5000    time-step for ionic-motion
   TEIN   =    0.0    initial temperature
   TEBEG  =    0.0;   TEEND  =   0.0 temperature during run
   SMASS  =  -3.00    Nose mass-parameter (am)
   estimated Nose-frequenzy (Omega)   =  0.10E-29 period in steps =****** mass=  -0.252E-27a.u.
   SCALEE = 1.0000    scale energy and forces
   NPACO  =    256;   APACO  = 16.0  distance and # of slots for P.C.
   PSTRESS=    0.0 pullay stress

  Mass of Ions in am
   POMASS =  95.94 78.96
  Ionic Valenz
   ZVAL   =  14.00  6.00
  Atomic Wigner-Seitz radii
   RWIGS  =  -1.00 -1.00
  virtual crystal weights 
   VCA    =   1.00  1.00
   NELECT =     104.0000    total number of electrons
   NUPDOWN=      -1.0000    fix difference up-down

 DOS related values:
   EMIN   =  10.00;   EMAX   =-10.00  energy-range for DOS
   EFERMI =   0.00
   ISMEAR =    -5;   SIGMA  =   0.01  broadening in eV -4-tet -1-fermi 0-gaus

 Electronic relaxation 2 (details)
   IALGO  =     38    algorithm
   LDIAG  =      T    sub-space diagonalisation (order eigenvalues)
   LSUBROT=      F    optimize rotation matrix (better conditioning)
   TURBO    =      0    0=normal 1=particle mesh
   IRESTART =      0    0=no restart 2=restart with 2 vectors
   NREBOOT  =      0    no. of reboots
   NMIN     =      0    reboot dimension
   EREF     =   0.00    reference energy to select bands
   IMIX   =      4    mixing-type and parameters
     AMIX     =   0.40;   BMIX     =  1.00
     AMIX_MAG =   1.60;   BMIX_MAG =  1.00
     AMIN     =   0.10
     WC   =   100.;   INIMIX=   1;  MIXPRE=   1;  MAXMIX= -45

 Intra band minimization:
   WEIMIN = 0.0000     energy-eigenvalue tresh-hold
   EBREAK =  0.30E-10  absolut break condition
   DEPER  =   0.30     relativ break condition  

   TIME   =   0.40     timestep for ELM

  volume/ion in A,a.u.               =      39.77       268.37
  Fermi-wavevector in a.u.,A,eV,Ry     =   0.985180  1.861720 13.205537  0.970580
  Thomas-Fermi vector in A             =   2.116468
 
 Write flags
   LWAVE  =      T    write WAVECAR
   LCHARG =      T    write CHGCAR
   LVTOT  =      F    write LOCPOT, total local potential
   LVHAR  =      F    write LOCPOT, Hartree potential only
   LELF   =      F    write electronic localiz. function (ELF)
   LORBIT =      0    0 simple, 1 ext, 2 COOP (PROOUT)


 Dipole corrections
   LMONO  =      F    monopole corrections only (constant potential shift)
   LDIPOL =      F    correct potential (dipole corrections)
   IDIPOL =      0    1-x, 2-y, 3-z, 4-all directions 
   EPSILON=  1.0000000 bulk dielectric constant

 Exchange correlation treatment:
   GGA     =    PE    GGA type
   LEXCH   =     8    internal setting for exchange type
   VOSKOWN=      0    Vosko Wilk Nusair interpolation
   LHFCALC =     F    Hartree Fock is set to
   LHFONE  =     F    Hartree Fock one center treatment
   AEXX    =    0.0000 exact exchange contribution

 Linear response parameters
   LEPSILON=     T    determine dielectric tensor
   LRPA    =     F    only Hartree local field effects (RPA)
   LNABLA  =     F    use nabla operator in PAW spheres
   LVEL    =     F    velocity operator in full k-point grid
   LINTERFAST=   F  fast interpolation
   KINTER  =     0    interpolate to denser k-point grid
   CSHIFT  =0.1000    complex shift for real part using Kramers Kronig
   OMEGAMAX=  -1.0    maximum frequency
   DEG_THRESHOLD= 0.2000000E-02 threshold for treating states as degnerate
   RTIME   =    0.100 relaxation time in fs

 Orbital magnetization related:
   ORBITALMAG=     F  switch on orbital magnetization
   LCHIMAG   =     F  perturbation theory with respect to B field
   DQ        =  0.001000  dq finite difference perturbation B field



--------------------------------------------------------------------------------------------------------


 Static calculation
 charge density and potential will be updated during run
 non-spin polarized calculation
 Variant of blocked Davidson
 Davidson routine will perform the subspace rotation
 perform sub-space diagonalisation
    after iterative eigenvector-optimisation
 modified Broyden-mixing scheme, WC =      100.0
 initial mixing is a Kerker type mixing with AMIX =  0.4000 and BMIX =      1.0000
 Hartree-type preconditioning will be used
 using additional bands           32
 reciprocal scheme for non local part
 use partial core corrections
 calculate Harris-corrections to forces 
   (improved forces if not selfconsistent)
 use gradient corrections 
 use of overlap-Matrix (Vanderbilt PP)
 Fermi weights with tetrahedron method with Bloechl corrections


--------------------------------------------------------------------------------------------------------


  energy-cutoff  :      344.91
  volume of cell :      477.21
      direct lattice vectors                 reciprocal lattice vectors
     3.319748788  0.000000000  0.000000000     0.301227612  0.173913843  0.000000000
    -1.659874394  2.874986784  0.000000000     0.000000000  0.347827686  0.000000000
     0.000000000  0.000000000 50.000000000     0.000000000  0.000000000  0.020000000

  length of vectors
     3.319748788  3.319748788 50.000000000     0.347827686  0.347827686  0.020000000


 
 k-points in units of 2pi/SCALE and weight: KPOINTS created by Atomic Simulation Env
   0.00000000  0.00000000  0.00000000       0.003
   0.01673487  0.00966188  0.00000000       0.019
   0.03346973  0.01932376  0.00000000       0.019
   0.05020460  0.02898564  0.00000000       0.019
   0.06693947  0.03864752  0.00000000       0.019
   0.08367434  0.04830940  0.00000000       0.019
   0.10040920  0.05797128  0.00000000       0.019
   0.11714407  0.06763316  0.00000000       0.019
   0.13387894  0.07729504  0.00000000       0.019
   0.15061381  0.08695692  0.00000000       0.009
   0.01673487  0.02898564  0.00000000       0.019
   0.03346973  0.03864752  0.00000000       0.037
   0.05020460  0.04830940  0.00000000       0.037
   0.06693947  0.05797128  0.00000000       0.037
   0.08367434  0.06763316  0.00000000       0.037
   0.10040920  0.07729504  0.00000000       0.037
   0.11714407  0.08695692  0.00000000       0.037
   0.13387894  0.09661880  0.00000000       0.037
   0.03346973  0.05797128  0.00000000       0.019
   0.05020460  0.06763316  0.00000000       0.037
   0.06693947  0.07729504  0.00000000       0.037
   0.08367434  0.08695692  0.00000000       0.037
   0.10040920  0.09661880  0.00000000       0.037
   0.11714407  0.10628068  0.00000000       0.037
   0.13387894  0.11594256  0.00000000       0.019
   0.05020460  0.08695692  0.00000000       0.019
   0.06693947  0.09661880  0.00000000       0.037
   0.08367434  0.10628068  0.00000000       0.037
   0.10040920  0.11594256  0.00000000       0.037
   0.11714407  0.12560444  0.00000000       0.037
   0.06693947  0.11594256  0.00000000       0.019
   0.08367434  0.12560444  0.00000000       0.037
   0.10040920  0.13526632  0.00000000       0.037
   0.11714407  0.14492820  0.00000000       0.019
   0.08367434  0.14492820  0.00000000       0.019
   0.10040920  0.15459008  0.00000000       0.037
   0.10040920  0.17391384  0.00000000       0.006
 
 k-points in reciprocal lattice and weights: KPOINTS created by Atomic Simulation Env
   0.00000000  0.00000000  0.00000000       0.003
   0.05555556  0.00000000  0.00000000       0.019
   0.11111111  0.00000000  0.00000000       0.019
   0.16666667  0.00000000  0.00000000       0.019
   0.22222222  0.00000000  0.00000000       0.019
   0.27777778  0.00000000  0.00000000       0.019
   0.33333333  0.00000000  0.00000000       0.019
   0.38888889  0.00000000  0.00000000       0.019
   0.44444444  0.00000000  0.00000000       0.019
   0.50000000  0.00000000  0.00000000       0.009
   0.05555556  0.05555556  0.00000000       0.019
   0.11111111  0.05555556  0.00000000       0.037
   0.16666667  0.05555556  0.00000000       0.037
   0.22222222  0.05555556  0.00000000       0.037
   0.27777778  0.05555556  0.00000000       0.037
   0.33333333  0.05555556  0.00000000       0.037
   0.38888889  0.05555556  0.00000000       0.037
   0.44444444  0.05555556  0.00000000       0.037
   0.11111111  0.11111111  0.00000000       0.019
   0.16666667  0.11111111  0.00000000       0.037
   0.22222222  0.11111111  0.00000000       0.037
   0.27777778  0.11111111  0.00000000       0.037
   0.33333333  0.11111111  0.00000000       0.037
   0.38888889  0.11111111  0.00000000       0.037
   0.44444444  0.11111111  0.00000000       0.019
   0.16666667  0.16666667  0.00000000       0.019
   0.22222222  0.16666667  0.00000000       0.037
   0.27777778  0.16666667  0.00000000       0.037
   0.33333333  0.16666667  0.00000000       0.037
   0.38888889  0.16666667  0.00000000       0.037
   0.22222222  0.22222222  0.00000000       0.019
   0.27777778  0.22222222  0.00000000       0.037
   0.33333333  0.22222222  0.00000000       0.037
   0.38888889  0.22222222  0.00000000       0.019
   0.27777778  0.27777778  0.00000000       0.019
   0.33333333  0.27777778  0.00000000       0.037
   0.33333333  0.33333333  0.00000000       0.006
 
 position of ions in fractional coordinates (direct lattice) 
   0.16666667  0.33333333  0.30620000
   0.83333333  0.66666667  0.43540000
   0.16666667  0.33333333  0.56460000
   0.83333333  0.66666667  0.69380000
   0.83333333  0.66666667  0.33958059
   0.83333333  0.66666667  0.27281941
   0.16666667  0.33333333  0.46878059
   0.16666667  0.33333333  0.40201941
   0.83333333  0.66666667  0.59798059
   0.83333333  0.66666667  0.53121941
   0.16666667  0.33333333  0.72718059
   0.16666667  0.33333333  0.66041941
 
 position of ions in cartesian coordinates  (Angst):
  -0.00000000  0.95832893 15.31000000
   1.65987439  1.91665786 21.77000000
  -0.00000000  0.95832893 28.23000000
   1.65987439  1.91665786 34.69000000
   1.65987439  1.91665786 16.97902948
   1.65987439  1.91665786 13.64097052
  -0.00000000  0.95832893 23.43902948
  -0.00000000  0.95832893 20.10097052
   1.65987439  1.91665786 29.89902948
   1.65987439  1.91665786 26.56097052
  -0.00000000  0.95832893 36.35902948
  -0.00000000  0.95832893 33.02097052
 


--------------------------------------------------------------------------------------------------------


 k-point  1 :   0.0000 0.0000 0.0000  plane waves:    6703
 k-point  2 :   0.0556 0.0000 0.0000  plane waves:    6781
 k-point  3 :   0.1111 0.0000 0.0000  plane waves:    6827
 k-point  4 :   0.1667 0.0000 0.0000  plane waves:    6855
 k-point  5 :   0.2222 0.0000 0.0000  plane waves:    6875
 k-point  6 :   0.2778 0.0000 0.0000  plane waves:    6915
 k-point  7 :   0.3333 0.0000 0.0000  plane waves:    6923
 k-point  8 :   0.3889 0.0000 0.0000  plane waves:    6942
 k-point  9 :   0.4444 0.0000 0.0000  plane waves:    6972
 k-point 10 :   0.5000 0.0000 0.0000  plane waves:    6978
 k-point 11 :   0.0556 0.0556 0.0000  plane waves:    6837
 k-point 12 :   0.1111 0.0556 0.0000  plane waves:    6869
 k-point 13 :   0.1667 0.0556 0.0000  plane waves:    6871
 k-point 14 :   0.2222 0.0556 0.0000  plane waves:    6889
 k-point 15 :   0.2778 0.0556 0.0000  plane waves:    6931
 k-point 16 :   0.3333 0.0556 0.0000  plane waves:    6924
 k-point 17 :   0.3889 0.0556 0.0000  plane waves:    6942
 k-point 18 :   0.4444 0.0556 0.0000  plane waves:    6965
 k-point 19 :   0.1111 0.1111 0.0000  plane waves:    6875
 k-point 20 :   0.1667 0.1111 0.0000  plane waves:    6900
 k-point 21 :   0.2222 0.1111 0.0000  plane waves:    6946
 k-point 22 :   0.2778 0.1111 0.0000  plane waves:    6966
 k-point 23 :   0.3333 0.1111 0.0000  plane waves:    6965
 k-point 24 :   0.3889 0.1111 0.0000  plane waves:    6961
 k-point 25 :   0.4444 0.1111 0.0000  plane waves:    6955
 k-point 26 :   0.1667 0.1667 0.0000  plane waves:    6949
 k-point 27 :   0.2222 0.1667 0.0000  plane waves:    6973
 k-point 28 :   0.2778 0.1667 0.0000  plane waves:    6980
 k-point 29 :   0.3333 0.1667 0.0000  plane waves:    6980
 k-point 30 :   0.3889 0.1667 0.0000  plane waves:    6987
 k-point 31 :   0.2222 0.2222 0.0000  plane waves:    6983
 k-point 32 :   0.2778 0.2222 0.0000  plane waves:    6993
 k-point 33 :   0.3333 0.2222 0.0000  plane waves:    7009
 k-point 34 :   0.3889 0.2222 0.0000  plane waves:    7007
 k-point 35 :   0.2778 0.2778 0.0000  plane waves:    7003
 k-point 36 :   0.3333 0.2778 0.0000  plane waves:    7017
 k-point 37 :   0.3333 0.3333 0.0000  plane waves:    7029

 maximum and minimum number of plane-waves per node :      7029     6703

 maximum number of plane-waves:      7029
 maximum index in each direction: 
   IXMAX=    4   IYMAX=    5   IZMAX=   75
   IXMIN=   -5   IYMIN=   -5   IZMIN=  -75

 NGX is ok and might be reduce to  20
 WARNING: aliasing errors must be expected set NGY to  22 to avoid them
 NGZ is ok and might be reduce to 302
 aliasing errors are usually negligible using standard VASP settings
 and one can safely disregard these warnings

 serial   3D FFT for wavefunctions
 parallel 3D FFT for charge:
    minimum data exchange during FFTs selected (reduces bandwidth)


 total amount of memory used by VASP on root node   226729. kBytes
========================================================================

   base      :      30000. kBytes
   nonl-proj :     172617. kBytes
   fftplans  :       2116. kBytes
   grid      :       8000. kBytes
   one-center:        968. kBytes
   wavefun   :      13028. kBytes
 
     INWAV:  cpu time    0.0000: real time    0.0000
 Broyden mixing: mesh for mixing (old mesh)
   NGX =  9   NGY =  9   NGZ =151
  (NGX  = 40   NGY  = 40   NGZ  =640)
  gives a total of  12231 points

 initial charge density was supplied:
 charge density of overlapping atoms calculated
 number of electron     104.0000000 magnetization 
 keeping initial charge density in first step


--------------------------------------------------------------------------------------------------------


 Maximum index for augmentation-charges          951 (set IRDMAX)


--------------------------------------------------------------------------------------------------------


 First call to EWALD:  gamma=   0.227
 Maximum number of real-space cells 7x 7x 1
 Maximum number of reciprocal cells 1x 1x15

 FEWALD executed in parallel
    FEWALD:  cpu time    0.0010: real time    0.0013


----------------------------------------- Iteration    1(   1)  ---------------------------------------


    POTLOK:  cpu time    0.0340: real time    0.0342
    SETDIJ:  cpu time    0.0070: real time    0.0077
     EDDAV:  cpu time    7.0399: real time    7.0503
 BZINTS: Fermi energy: 11.483198;104.000000 electrons
         Band energy:-797.674380;  BLOECHL correction: -0.071500
       DOS:  cpu time    0.0240: real time    0.0246
    --------------------------------------------
      LOOP:  cpu time    7.1059: real time    7.1190

 eigenvalue-minimisations  :  7280
 total energy-change (2. order) : 0.6633969E+03  (-0.4326418E+04)
 number of electron     104.0000000 magnetization 
 augmentation part      104.0000000 magnetization 

 Free energy of the ion-electron system (eV)
  ---------------------------------------------------
  alpha Z        PSCENC =       219.86696060
  Ewald energy   TEWEN  =     97654.83570772
  -Hartree energ DENC   =   -106306.56216951
  -exchange      EXHF   =         0.00000000
  -V(xc)+E(xc)   XCENC  =       262.02229945
  PAW double counting   =      7717.40752385    -7589.13287868
  entropy T*S    EENTRO =         0.00000000
  eigenvalues    EBANDS =      -797.67437956
  atomic energy  EATOM  =      9502.63388353
  Solvation  Ediel_sol  =         0.00000000
  ---------------------------------------------------
  free energy    TOTEN  =       663.39694740 eV

  energy without entropy =      663.39694740  energy(sigma->0) =      663.39694740


--------------------------------------------------------------------------------------------------------




----------------------------------------- Iteration    1(   2)  ---------------------------------------


     EDDAV:  cpu time    8.8437: real time    8.8490
 BZINTS: Fermi energy:  3.306415;104.000000 electrons
         Band energy:***********;  BLOECHL correction:  0.000000
       DOS:  cpu time    0.0050: real time    0.0053
    --------------------------------------------
      LOOP:  cpu time    8.8527: real time    8.8595

 eigenvalue-minimisations  :  9408
 total energy-change (2. order) :-0.6958816E+03  (-0.6717618E+03)
 number of electron     104.0000000 magnetization 
 augmentation part      104.0000000 magnetization 

 Free energy of the ion-electron system (eV)
  ---------------------------------------------------
  alpha Z        PSCENC =       219.86696060
  Ewald energy   TEWEN  =     97654.83570772
  -Hartree energ DENC   =   -106306.56216951
  -exchange      EXHF   =         0.00000000
  -V(xc)+E(xc)   XCENC  =       262.02229945
  PAW double counting   =      7717.40752385    -7589.13287868
  entropy T*S    EENTRO =         0.00000000
  eigenvalues    EBANDS =     -1493.55595901
  atomic energy  EATOM  =      9502.63388353
  Solvation  Ediel_sol  =         0.00000000
  ---------------------------------------------------
  free energy    TOTEN  =       -32.48463205 eV

  energy without entropy =      -32.48463205  energy(sigma->0) =      -32.48463205


--------------------------------------------------------------------------------------------------------




----------------------------------------- Iteration    1(   3)  ---------------------------------------


     EDDAV:  cpu time    8.1328: real time    8.1389
 BZINTS: Fermi energy:  2.005487;104.000000 electrons
         Band energy:***********;  BLOECHL correction:  0.000000
       DOS:  cpu time    0.0050: real time    0.0052
    --------------------------------------------
      LOOP:  cpu time    8.1408: real time    8.1488

 eigenvalue-minimisations  :  8512
 total energy-change (2. order) :-0.5982883E+02  (-0.5890484E+02)
 number of electron     104.0000000 magnetization 
 augmentation part      104.0000000 magnetization 

 Free energy of the ion-electron system (eV)
  ---------------------------------------------------
  alpha Z        PSCENC =       219.86696060
  Ewald energy   TEWEN  =     97654.83570772
  -Hartree energ DENC   =   -106306.56216951
  -exchange      EXHF   =         0.00000000
  -V(xc)+E(xc)   XCENC  =       262.02229945
  PAW double counting   =      7717.40752385    -7589.13287868
  entropy T*S    EENTRO =         0.00000000
  eigenvalues    EBANDS =     -1553.38478578
  atomic energy  EATOM  =      9502.63388353
  Solvation  Ediel_sol  =         0.00000000
  ---------------------------------------------------
  free energy    TOTEN  =       -92.31345882 eV

  energy without entropy =      -92.31345882  energy(sigma->0) =      -92.31345882


--------------------------------------------------------------------------------------------------------




----------------------------------------- Iteration    1(   4)  ---------------------------------------


     EDDAV:  cpu time    9.6195: real time    9.6247
 BZINTS: Fermi energy:  1.832984;104.000000 electrons
         Band energy:***********;  BLOECHL correction:  0.000000
       DOS:  cpu time    0.0050: real time    0.0052
    --------------------------------------------
      LOOP:  cpu time    9.6245: real time    9.6323

 eigenvalue-minimisations  : 10248
 total energy-change (2. order) :-0.2589157E+01  (-0.2584031E+01)
 number of electron     104.0000000 magnetization 
 augmentation part      104.0000000 magnetization 

 Free energy of the ion-electron system (eV)
  ---------------------------------------------------
  alpha Z        PSCENC =       219.86696060
  Ewald energy   TEWEN  =     97654.83570772
  -Hartree energ DENC   =   -106306.56216951
  -exchange      EXHF   =         0.00000000
  -V(xc)+E(xc)   XCENC  =       262.02229945
  PAW double counting   =      7717.40752385    -7589.13287868
  entropy T*S    EENTRO =         0.00000000
  eigenvalues    EBANDS =     -1555.97394230
  atomic energy  EATOM  =      9502.63388353
  Solvation  Ediel_sol  =         0.00000000
  ---------------------------------------------------
  free energy    TOTEN  =       -94.90261534 eV

  energy without entropy =      -94.90261534  energy(sigma->0) =      -94.90261534


--------------------------------------------------------------------------------------------------------




----------------------------------------- Iteration    1(   5)  ---------------------------------------


     EDDAV:  cpu time    8.7207: real time    8.7284
 BZINTS: Fermi energy:  1.809326;104.000000 electrons
         Band energy:***********;  BLOECHL correction:  0.000000
       DOS:  cpu time    0.0050: real time    0.0051
    CHARGE:  cpu time    0.1990: real time    0.1998
    MIXING:  cpu time    0.0010: real time    0.0012
    --------------------------------------------
      LOOP:  cpu time    8.9266: real time    8.9379

 eigenvalue-minimisations  :  8904
 total energy-change (2. order) :-0.1234802E-01  (-0.1234294E-01)
 number of electron     104.0000001 magnetization 
 augmentation part      -11.1561120 magnetization 

 Broyden mixing:
  rms(total) = 0.19404E+01    rms(broyden)= 0.19390E+01
  rms(prec ) = 0.19924E+01
  weight for this iteration     100.00

 Free energy of the ion-electron system (eV)
  ---------------------------------------------------
  alpha Z        PSCENC =       219.86696060
  Ewald energy   TEWEN  =     97654.83570772
  -Hartree energ DENC   =   -106306.56216951
  -exchange      EXHF   =         0.00000000
  -V(xc)+E(xc)   XCENC  =       262.02229945
  PAW double counting   =      7717.40752385    -7589.13287868
  entropy T*S    EENTRO =         0.00000000
  eigenvalues    EBANDS =     -1555.98629032
  atomic energy  EATOM  =      9502.63388353
  Solvation  Ediel_sol  =         0.00000000
  ---------------------------------------------------
  free energy    TOTEN  =       -94.91496336 eV

  energy without entropy =      -94.91496336  energy(sigma->0) =      -94.91496336


--------------------------------------------------------------------------------------------------------




----------------------------------------- Iteration    1(   6)  ---------------------------------------


    POTLOK:  cpu time    0.0330: real time    0.0337
    SETDIJ:  cpu time    0.0070: real time    0.0074
     EDDAV:  cpu time   10.1035: real time   10.1133
 BZINTS: Fermi energy: -0.087786;104.000000 electrons
         Band energy:***********;  BLOECHL correction:  0.000000
       DOS:  cpu time    0.0040: real time    0.0046
    CHARGE:  cpu time    0.1920: real time    0.1914
    MIXING:  cpu time    0.0010: real time    0.0011
    --------------------------------------------
      LOOP:  cpu time   10.3414: real time   10.3540

 eigenvalue-minimisations  : 10080
 total energy-change (2. order) : 0.7659810E+01  (-0.5887634E+01)
 number of electron     103.9999996 magnetization 
 augmentation part       -8.6841527 magnetization 

 Broyden mixing:
  rms(total) = 0.11760E+01    rms(broyden)= 0.11753E+01
  rms(prec ) = 0.12294E+01
  weight for this iteration     100.00

 eigenvalues of (default mixing * dielectric matrix)
  average eigenvalue GAMMA=   0.6690
  0.6690

 Free energy of the ion-electron system (eV)
  ---------------------------------------------------
  alpha Z        PSCENC =       219.86696060
  Ewald energy   TEWEN  =     97654.83570772
  -Hartree energ DENC   =   -106086.37953744
  -exchange      EXHF   =         0.00000000
  -V(xc)+E(xc)   XCENC  =       256.35449795
  PAW double counting   =      7318.77630017    -7195.46811859
  entropy T*S    EENTRO =         0.00000000
  eigenvalues    EBANDS =     -1757.87484694
  atomic energy  EATOM  =      9502.63388353
  Solvation  Ediel_sol  =         0.00000000
  ---------------------------------------------------
  free energy    TOTEN  =       -87.25515300 eV

  energy without entropy =      -87.25515300  energy(sigma->0) =      -87.25515300


--------------------------------------------------------------------------------------------------------




----------------------------------------- Iteration    1(   7)  ---------------------------------------


    POTLOK:  cpu time    0.0320: real time    0.0328
    SETDIJ:  cpu time    0.0080: real time    0.0076
     EDDAV:  cpu time    9.5755: real time    9.5963
 BZINTS: Fermi energy:  0.840867;104.000000 electrons
         Band energy:***********;  BLOECHL correction:  0.000000
       DOS:  cpu time    0.0050: real time    0.0046
    CHARGE:  cpu time    0.1880: real time    0.1881
    MIXING:  cpu time    0.0010: real time    0.0012
    --------------------------------------------
      LOOP:  cpu time    9.8105: real time    9.8340

 eigenvalue-minimisations  :  9884
 total energy-change (2. order) : 0.3939877E+01  (-0.2021597E+01)
 number of electron     103.9999998 magnetization 
 augmentation part       -9.8552361 magnetization 

 Broyden mixing:
  rms(total) = 0.56913E+00    rms(broyden)= 0.56879E+00
  rms(prec ) = 0.57521E+00
  weight for this iteration     100.00

 eigenvalues of (default mixing * dielectric matrix)
  average eigenvalue GAMMA=   1.5963
  2.6356  0.5570

 Free energy of the ion-electron system (eV)
  ---------------------------------------------------
  alpha Z        PSCENC =       219.86696060
  Ewald energy   TEWEN  =     97654.83570772
  -Hartree energ DENC   =   -106202.80189497
  -exchange      EXHF   =         0.00000000
  -V(xc)+E(xc)   XCENC  =       258.35221118
  PAW double counting   =      7557.00713128    -7431.08657901
  entropy T*S    EENTRO =         0.00000000
  eigenvalues    EBANDS =     -1642.12269598
  atomic energy  EATOM  =      9502.63388353
  Solvation  Ediel_sol  =         0.00000000
  ---------------------------------------------------
  free energy    TOTEN  =       -83.31527564 eV

  energy without entropy =      -83.31527564  energy(sigma->0) =      -83.31527564


--------------------------------------------------------------------------------------------------------




----------------------------------------- Iteration    1(   8)  ---------------------------------------


    POTLOK:  cpu time    0.0310: real time    0.0318
    SETDIJ:  cpu time    0.0070: real time    0.0074
     EDDAV:  cpu time   10.0495: real time   10.0597
 BZINTS: Fermi energy:  0.606377;104.000000 electrons
         Band energy:***********;  BLOECHL correction:  0.000000
       DOS:  cpu time    0.0050: real time    0.0052
    CHARGE:  cpu time    0.1860: real time    0.1853
    MIXING:  cpu time    0.0010: real time    0.0010
    --------------------------------------------
      LOOP:  cpu time   10.2814: real time   10.2929

 eigenvalue-minimisations  : 10024
 total energy-change (2. order) : 0.2516552E+00  (-0.2441764E+00)
 number of electron     103.9999998 magnetization 
 augmentation part       -9.5002914 magnetization 

 Broyden mixing:
  rms(total) = 0.18685E+00    rms(broyden)= 0.18678E+00
  rms(prec ) = 0.19341E+00
  weight for this iteration     100.00

 eigenvalues of (default mixing * dielectric matrix)
  average eigenvalue GAMMA=   1.3377
  0.5328  1.0678  2.4124

 Free energy of the ion-electron system (eV)
  ---------------------------------------------------
  alpha Z        PSCENC =       219.86696060
  Ewald energy   TEWEN  =     97654.83570772
  -Hartree energ DENC   =   -106174.37669549
  -exchange      EXHF   =         0.00000000
  -V(xc)+E(xc)   XCENC  =       257.25811972
  PAW double counting   =      7514.18007709    -7388.26748677
  entropy T*S    EENTRO =         0.00000000
  eigenvalues    EBANDS =     -1669.19418684
  atomic energy  EATOM  =      9502.63388353
  Solvation  Ediel_sol  =         0.00000000
  ---------------------------------------------------
  free energy    TOTEN  =       -83.06362044 eV

  energy without entropy =      -83.06362044  energy(sigma->0) =      -83.06362044


--------------------------------------------------------------------------------------------------------




----------------------------------------- Iteration    1(   9)  ---------------------------------------


    POTLOK:  cpu time    0.0310: real time    0.0308
    SETDIJ:  cpu time    0.0080: real time    0.0076
     EDDAV:  cpu time    9.3336: real time    9.3415
 BZINTS: Fermi energy:  0.709382;104.000000 electrons
         Band energy:***********;  BLOECHL correction:  0.000000
       DOS:  cpu time    0.0050: real time    0.0046
    CHARGE:  cpu time    0.1840: real time    0.1846
    MIXING:  cpu time    0.0010: real time    0.0011
    --------------------------------------------
      LOOP:  cpu time    9.5625: real time    9.5726

 eigenvalue-minimisations  :  9492
 total energy-change (2. order) : 0.1017870E+00  (-0.3242263E-01)
 number of electron     103.9999998 magnetization 
 augmentation part       -9.6558761 magnetization 

 Broyden mixing:
  rms(total) = 0.42296E-01    rms(broyden)= 0.42240E-01
  rms(prec ) = 0.43024E-01
  weight for this iteration     100.00

 eigenvalues of (default mixing * dielectric matrix)
  average eigenvalue GAMMA=   1.2739
  2.4419  1.3358  0.5335  0.7844

 Free energy of the ion-electron system (eV)
  ---------------------------------------------------
  alpha Z        PSCENC =       219.86696060
  Ewald energy   TEWEN  =     97654.83570772
  -Hartree energ DENC   =   -106194.07109273
  -exchange      EXHF   =         0.00000000
  -V(xc)+E(xc)   XCENC  =       257.68816114
  PAW double counting   =      7551.12035048    -7424.83092268
  entropy T*S    EENTRO =         0.00000000
  eigenvalues    EBANDS =     -1650.20488146
  atomic energy  EATOM  =      9502.63388353
  Solvation  Ediel_sol  =         0.00000000
  ---------------------------------------------------
  free energy    TOTEN  =       -82.96183340 eV

  energy without entropy =      -82.96183340  energy(sigma->0) =      -82.96183340


--------------------------------------------------------------------------------------------------------




----------------------------------------- Iteration    1(  10)  ---------------------------------------


    POTLOK:  cpu time    0.0310: real time    0.0312
    SETDIJ:  cpu time    0.0070: real time    0.0074
     EDDAV:  cpu time    9.1896: real time    9.1989
 BZINTS: Fermi energy:  0.703684;104.000000 electrons
         Band energy:***********;  BLOECHL correction:  0.000000
       DOS:  cpu time    0.0050: real time    0.0047
    CHARGE:  cpu time    0.1990: real time    0.1991
    MIXING:  cpu time    0.0010: real time    0.0012
    --------------------------------------------
      LOOP:  cpu time    9.4336: real time    9.4484

 eigenvalue-minimisations  :  9156
 total energy-change (2. order) : 0.8482661E-03  (-0.3264272E-02)
 number of electron     103.9999998 magnetization 
 augmentation part       -9.6783508 magnetization 

 Broyden mixing:
  rms(total) = 0.21827E-01    rms(broyden)= 0.21813E-01
  rms(prec ) = 0.22404E-01
  weight for this iteration     100.00

 eigenvalues of (default mixing * dielectric matrix)
  average eigenvalue GAMMA=   1.3022
  2.5549  1.8176  0.9811  0.5376  0.6196

 Free energy of the ion-electron system (eV)
  ---------------------------------------------------
  alpha Z        PSCENC =       219.86696060
  Ewald energy   TEWEN  =     97654.83570772
  -Hartree energ DENC   =   -106196.53852015
  -exchange      EXHF   =         0.00000000
  -V(xc)+E(xc)   XCENC  =       257.79208576
  PAW double counting   =      7560.77053277    -7434.40796300
  entropy T*S    EENTRO =         0.00000000
  eigenvalues    EBANDS =     -1647.91367237
  atomic energy  EATOM  =      9502.63388353
  Solvation  Ediel_sol  =         0.00000000
  ---------------------------------------------------
  free energy    TOTEN  =       -82.96098513 eV

  energy without entropy =      -82.96098513  energy(sigma->0) =      -82.96098513


--------------------------------------------------------------------------------------------------------




----------------------------------------- Iteration    1(  11)  ---------------------------------------


    POTLOK:  cpu time    0.0320: real time    0.0338
    SETDIJ:  cpu time    0.0070: real time    0.0075
     EDDAV:  cpu time    8.4097: real time    9.0702
 BZINTS: Fermi energy:  0.884074;104.000000 electrons
         Band energy:***********;  BLOECHL correction:  0.000000
       DOS:  cpu time    0.0060: real time    0.0052
    CHARGE:  cpu time    0.1840: real time    0.1913
    MIXING:  cpu time    0.0010: real time    0.0012
    --------------------------------------------
      LOOP:  cpu time    8.6407: real time    9.3123

 eigenvalue-minimisations  :  8792
 total energy-change (2. order) : 0.8900789E-03  (-0.5181230E-03)
 number of electron     103.9999998 magnetization 
 augmentation part       -9.6732843 magnetization 

 Broyden mixing:
  rms(total) = 0.87606E-02    rms(broyden)= 0.87567E-02
  rms(prec ) = 0.91214E-02
  weight for this iteration     100.00

 eigenvalues of (default mixing * dielectric matrix)
  average eigenvalue GAMMA=   1.2876
  2.4823  1.5837  1.5837  0.9824  0.5388  0.5547

 Free energy of the ion-electron system (eV)
  ---------------------------------------------------
  alpha Z        PSCENC =       219.86696060
  Ewald energy   TEWEN  =     97654.83570772
  -Hartree energ DENC   =   -106199.52277152
  -exchange      EXHF   =         0.00000000
  -V(xc)+E(xc)   XCENC  =       257.83308938
  PAW double counting   =      7563.23102030    -7436.87164645
  entropy T*S    EENTRO =         0.00000000
  eigenvalues    EBANDS =     -1644.96633861
  atomic energy  EATOM  =      9502.63388353
  Solvation  Ediel_sol  =         0.00000000
  ---------------------------------------------------
  free energy    TOTEN  =       -82.96009505 eV

  energy without entropy =      -82.96009505  energy(sigma->0) =      -82.96009505


--------------------------------------------------------------------------------------------------------




----------------------------------------- Iteration    1(  12)  ---------------------------------------


    POTLOK:  cpu time    0.0300: real time    0.0314
    SETDIJ:  cpu time    0.0060: real time    0.0074
     EDDAV:  cpu time    8.3127: real time    8.6125
 BZINTS: Fermi energy:  0.876646;104.000000 electrons
         Band energy:***********;  BLOECHL correction:  0.000000
       DOS:  cpu time    0.0050: real time    0.0056
    CHARGE:  cpu time    0.1830: real time    0.2034
    MIXING:  cpu time    0.0010: real time    0.0012
    --------------------------------------------
      LOOP:  cpu time    8.5387: real time    8.8657

 eigenvalue-minimisations  :  8736
 total energy-change (2. order) : 0.2109062E-03  (-0.1156878E-03)
 number of electron     103.9999998 magnetization 
 augmentation part       -9.6661277 magnetization 

 Broyden mixing:
  rms(total) = 0.38483E-02    rms(broyden)= 0.38466E-02
  rms(prec ) = 0.41704E-02
  weight for this iteration     100.00

 eigenvalues of (default mixing * dielectric matrix)
  average eigenvalue GAMMA=   1.3203
  2.3688  2.3688  1.3132  1.2295  0.8671  0.5399  0.5548

 Free energy of the ion-electron system (eV)
  ---------------------------------------------------
  alpha Z        PSCENC =       219.86696060
  Ewald energy   TEWEN  =     97654.83570772
  -Hartree energ DENC   =   -106200.83760047
  -exchange      EXHF   =         0.00000000
  -V(xc)+E(xc)   XCENC  =       257.81702113
  PAW double counting   =      7559.94700782    -7433.63445982
  entropy T*S    EENTRO =         0.00000000
  eigenvalues    EBANDS =     -1643.58840467
  atomic energy  EATOM  =      9502.63388353
  Solvation  Ediel_sol  =         0.00000000
  ---------------------------------------------------
  free energy    TOTEN  =       -82.95988415 eV

  energy without entropy =      -82.95988415  energy(sigma->0) =      -82.95988415


--------------------------------------------------------------------------------------------------------




----------------------------------------- Iteration    1(  13)  ---------------------------------------


    POTLOK:  cpu time    0.0310: real time    0.0330
    SETDIJ:  cpu time    0.0080: real time    0.0076
     EDDAV:  cpu time    8.1828: real time    8.4308
 BZINTS: Fermi energy:  0.877065;104.000000 electrons
         Band energy:***********;  BLOECHL correction:  0.000000
       DOS:  cpu time    0.0040: real time    0.0056
    CHARGE:  cpu time    0.1820: real time    0.2007
    MIXING:  cpu time    0.0020: real time    0.0014
    --------------------------------------------
      LOOP:  cpu time    8.4107: real time    8.6817

 eigenvalue-minimisations  :  8568
 total energy-change (2. order) : 0.8217022E-04  (-0.1535281E-04)
 number of electron     103.9999998 magnetization 
 augmentation part       -9.6667345 magnetization 

 Broyden mixing:
  rms(total) = 0.19986E-02    rms(broyden)= 0.19966E-02
  rms(prec ) = 0.22899E-02
  weight for this iteration     100.00

 eigenvalues of (default mixing * dielectric matrix)
  average eigenvalue GAMMA=   1.3515
  2.5667  2.5667  1.4069  1.4069  0.8837  0.8837  0.5379  0.5592

 Free energy of the ion-electron system (eV)
  ---------------------------------------------------
  alpha Z        PSCENC =       219.86696060
  Ewald energy   TEWEN  =     97654.83570772
  -Hartree energ DENC   =   -106202.46209621
  -exchange      EXHF   =         0.00000000
  -V(xc)+E(xc)   XCENC  =       257.82887317
  PAW double counting   =      7559.42717700    -7433.12705612
  entropy T*S    EENTRO =         0.00000000
  eigenvalues    EBANDS =     -1641.96325167
  atomic energy  EATOM  =      9502.63388353
  Solvation  Ediel_sol  =         0.00000000
  ---------------------------------------------------
  free energy    TOTEN  =       -82.95980198 eV

  energy without entropy =      -82.95980198  energy(sigma->0) =      -82.95980198


--------------------------------------------------------------------------------------------------------




----------------------------------------- Iteration    1(  14)  ---------------------------------------


    POTLOK:  cpu time    0.0320: real time    0.0334
[...]
    LRDIAG:  cpu time    0.2580: real time    0.2577
    MIXING:  cpu time    0.0020: real time    0.0023
    --------------------------------------------
      LOOP:  cpu time    8.1568: real time    8.1648

 Broyden mixing:
  rms(total) = 0.24154E-05    rms(broyden)= 0.24146E-05
  rms(prec ) = 0.27691E-05
  weight for this iteration     100.00

 eigenvalues of (default mixing * dielectric matrix)
  average eigenvalue GAMMA=   2.1715
  8.8984  6.6148  4.2631  3.5376  2.6882  2.6882  1.9593  1.9593  1.4930  1.4930
  1.1141  0.9058  0.9058  0.9716  0.9384  0.6979  0.5407  0.5443  0.6663  0.5493

 Free energy of the ion-electron system (eV)
  ---------------------------------------------------
  -Hartree energ DENC   =        -0.85474026
  -V(xc)+E(xc)   XCENC  =         0.01296101
  PAW double counting   =         0.03518348       -0.03485132
  entropy T*S    EENTRO =         0.00000000
  eigenvalues    EBANDS =        -0.26058268
  ---------------------------------------------------
  free energy    TOTEN  =        -1.10202978 eV

  energy without entropy =       -1.10202978


----------------------------------------- Iteration    3(  23)  ---------------------------------------


   POT+DIJ:  cpu time    0.0810: real time    0.0819
    HAMIL1:  cpu time    1.4798: real time    1.4815
    LRDIAG:  cpu time    0.2640: real time    0.2633
    LRDIIS:  cpu time    5.5162: real time    5.5185
    LRDIAG:  cpu time    0.2630: real time    0.2627
    MIXING:  cpu time    0.0020: real time    0.0023
    --------------------------------------------
      LOOP:  cpu time    8.1038: real time    8.1100

 Broyden mixing:
  rms(total) = 0.15627E-05    rms(broyden)= 0.15617E-05
  rms(prec ) = 0.18416E-05
  weight for this iteration     100.00

 eigenvalues of (default mixing * dielectric matrix)
  average eigenvalue GAMMA=   2.1534
  8.9402  6.6610  4.4220  3.6524  2.8201  2.8201  2.1165  2.1165  1.6695  1.4734
  1.1148  0.9894  0.9063  0.9063  0.9295  0.6980  0.6758  0.6758  0.5407  0.5443
  0.5495

 Free energy of the ion-electron system (eV)
  ---------------------------------------------------
  -Hartree energ DENC   =        -0.85473812
  -V(xc)+E(xc)   XCENC  =         0.01296070
  PAW double counting   =         0.03518799       -0.03485588
  entropy T*S    EENTRO =         0.00000000
  eigenvalues    EBANDS =        -0.26062567
  ---------------------------------------------------
  free energy    TOTEN  =        -1.10207099 eV

  energy without entropy =       -1.10207099


----------------------------------------- Iteration    3(  24)  ---------------------------------------


   POT+DIJ:  cpu time    0.0820: real time    0.0827
    HAMIL1:  cpu time    1.4818: real time    1.4831
    LRDIAG:  cpu time    0.2640: real time    0.2643
    LRDIIS:  cpu time    5.3972: real time    5.4000
    LRDIAG:  cpu time    0.2580: real time    0.2577
    MIXING:  cpu time    0.0030: real time    0.0023
    --------------------------------------------
      LOOP:  cpu time    7.9798: real time    7.9874

 Broyden mixing:
  rms(total) = 0.11170E-05    rms(broyden)= 0.11168E-05
  rms(prec ) = 0.13337E-05
  weight for this iteration     100.00

 eigenvalues of (default mixing * dielectric matrix)
  average eigenvalue GAMMA=   2.1160
  8.9548  6.6837  4.5208  3.6910  2.8552  2.8552  2.1748  2.1748  1.7334  1.4467
  1.1057  1.1057  0.9085  0.9085  0.9285  0.9285  0.6979  0.6669  0.5407  0.5443
  0.5495  0.5761

 Free energy of the ion-electron system (eV)
  ---------------------------------------------------
  -Hartree energ DENC   =        -0.85473879
  -V(xc)+E(xc)   XCENC  =         0.01296061
  PAW double counting   =         0.03518776       -0.03485564
  entropy T*S    EENTRO =         0.00000000
  eigenvalues    EBANDS =        -0.26059804
  ---------------------------------------------------
  free energy    TOTEN  =        -1.10204410 eV

  energy without entropy =       -1.10204410


----------------------------------------- Iteration    3(  25)  ---------------------------------------


   POT+DIJ:  cpu time    0.0810: real time    0.0818
    HAMIL1:  cpu time    1.4768: real time    1.4774
    LRDIAG:  cpu time    0.2640: real time    0.2640
    LRDIIS:  cpu time    5.1532: real time    5.1554
    LRDIAG:  cpu time    0.2580: real time    0.2576
    MIXING:  cpu time    0.0020: real time    0.0025
    --------------------------------------------
      LOOP:  cpu time    7.7348: real time    7.7414

 Broyden mixing:
  rms(total) = 0.45901E-06    rms(broyden)= 0.45848E-06
  rms(prec ) = 0.71331E-06
  weight for this iteration     100.00

 eigenvalues of (default mixing * dielectric matrix)
  average eigenvalue GAMMA=   2.1480
  8.9588  6.7320  4.3465  4.3465  3.0173  3.0173  2.2655  2.2655  1.8057  1.8057
  1.4302  1.1345  0.9058  0.9058  0.9856  0.9856  0.9385  0.6979  0.6672  0.5407
  0.5443  0.5488  0.5582

 Free energy of the ion-electron system (eV)
  ---------------------------------------------------
  -Hartree energ DENC   =        -0.85473998
  -V(xc)+E(xc)   XCENC  =         0.01296062
  PAW double counting   =         0.03518606       -0.03485392
  entropy T*S    EENTRO =         0.00000000
  eigenvalues    EBANDS =        -0.26059218
  ---------------------------------------------------
  free energy    TOTEN  =        -1.10203940 eV

  energy without entropy =       -1.10203940


------------------------ aborting loop because EDIFF is reached ----------------------------------------


 change of polarisation eV/A/(eV/A) component  3 :    -0.010     0.002     2.165
 dielectric tensor                  component  3 :    -0.004     0.001     1.821


--------------------------------------------------------------------------------------------------------


    FORLOC:  cpu time    0.0040: real time    0.0032
    FORNL :  cpu time    1.6198: real time    1.6209
    STRESS:  cpu time    4.7153: real time    4.7169
    FORCOR:  cpu time    0.0310: real time    0.0317
    OFIELD:  cpu time    0.0010: real time    0.0003

  Hirshfeld charges:
            ion         q(e)     
   ------------------------------
      1     Mo          0.310
      2     Mo          0.308
      3     Mo          0.308
      4     Mo          0.310
      5     Se         -0.154
      6     Se         -0.155
      7     Se         -0.154
      8     Se         -0.154
      9     Se         -0.154
     10     Se         -0.154
     11     Se         -0.155
     12     Se         -0.154

  Tkatchenko/Scheffler method for vdW energy calculation
  ---------------------------------------------------------------------------------------------

  Parameters of vdW forcefield:
            C6ts              R0ts           ALPHAts        RELVOL
            (au)              (au)            (au)                
   ---------------------------------------------------------------
   Mo       1086.648          4.138         90.875          1.028
   Mo       1094.560          4.143         91.205          1.031
   Mo       1094.560          4.143         91.205          1.031
   Mo       1086.649          4.138         90.875          1.028
   Se        215.629          4.062         25.333          1.013
   Se        211.148          4.048         25.068          1.003
   Se        215.639          4.062         25.333          1.013
   Se        215.625          4.062         25.333          1.013
   Se        215.625          4.062         25.333          1.013
   Se        215.639          4.062         25.333          1.013
   Se        211.148          4.048         25.068          1.003
   Se        215.628          4.062         25.333          1.013
  Edisp (eV):   -3.59341
    FORVDW:  cpu time    0.4229: real time    0.4234
    FORLOC:  cpu time    0.0040: real time    0.0033
    FORNL :  cpu time    1.6308: real time    1.6316
    STRESS:  cpu time    4.7293: real time    4.7292
    FORCOR:  cpu time    0.0330: real time    0.0340
    OFIELD:  cpu time    0.0010: real time    0.0003

  Hirshfeld charges:
            ion         q(e)     
   ------------------------------
      1     Mo          0.310
      2     Mo          0.308
      3     Mo          0.308
      4     Mo          0.310
      5     Se         -0.154
      6     Se         -0.155
      7     Se         -0.154
      8     Se         -0.154
      9     Se         -0.154
     10     Se         -0.154
     11     Se         -0.155
     12     Se         -0.154

  Tkatchenko/Scheffler method for vdW energy calculation
  ---------------------------------------------------------------------------------------------

  Parameters of vdW forcefield:
            C6ts              R0ts           ALPHAts        RELVOL
            (au)              (au)            (au)                
   ---------------------------------------------------------------
   Mo       1086.649          4.138         90.875          1.028
   Mo       1094.560          4.143         91.205          1.031
   Mo       1094.560          4.143         91.205          1.031
   Mo       1086.648          4.138         90.875          1.028
   Se        215.628          4.062         25.333          1.013
   Se        211.148          4.048         25.068          1.003
   Se        215.639          4.062         25.333          1.013
   Se        215.625          4.062         25.333          1.013
   Se        215.625          4.062         25.333          1.013
   Se        215.639          4.062         25.333          1.013
   Se        211.148          4.048         25.068          1.003
   Se        215.629          4.062         25.333          1.013
  Edisp (eV):   -3.59341
    FORVDW:  cpu time    0.4229: real time    0.4235
    FORNLD:  cpu time    4.1794: real time    4.1809

 PIEZOELECTRIC TENSOR FIELD DIRECTION 3  (e Angst)
 -----------------------------------------------------------------------------
     0.19922  0.00000  0.00000           ( -0.00000  0.00000  0.00000)
    -0.00000  0.19922 -0.00000           (  0.00000 -0.00000  0.00000)
     0.00000  0.00000  0.01874           (  0.00000  0.00000  0.00001)

 PIEZOELECTRIC TENSOR FIELD DIRECTION 3  (C/m^2)
 -----------------------------------------------------------------------------
     0.00669  0.00000  0.00000
    -0.00000  0.00669 -0.00000
     0.00000  0.00000  0.00063


      POSITION         DIRECTION 3           BORN EFFECTIVE CHARGE    (rigid.aug.   ionic)
 -----------------------------------------------------------------------------------------
     -0.00000      0.95833     15.31000     0.00000 -0.00000-42.31493 (  0.16872 14.00000)
      1.65987      1.91666     21.77000     0.00000  0.00000 -4.64418 (  0.16859 14.00000)
     -0.00000      0.95833     28.23000     0.00000  0.00000 -4.63269 (  0.16859 14.00000)
      1.65987      1.91666     34.69000     0.00000  0.00000-42.32752 (  0.16872 14.00000)
      1.65987      1.91666     16.97903     0.00000 -0.00000  0.09084 (  1.12429  6.00000)
      1.65987      1.91666     13.64097     0.00000 -0.00000  3.59543 (  1.12264  6.00000)
     -0.00000      0.95833     23.43903     0.00000 -0.00000  0.29836 (  1.12432  6.00000)
     -0.00000      0.95833     20.10097     0.00000 -0.00000 -0.06113 (  1.12431  6.00000)
      1.65987      1.91666     29.89903    -0.00000 -0.00000  0.03281 (  1.12431  6.00000)
      1.65987      1.91666     26.56097     0.00000 -0.00000  0.34917 (  1.12432  6.00000)
     -0.00000      0.95833     36.35903     0.00000 -0.00000  3.53651 (  1.12264  6.00000)
     -0.00000      0.95833     33.02097    -0.00000  0.00000 -0.03435 (  1.12429  6.00000)
 -----------------------------------------------------------------------------------------
    total drift (improves with k-points):   0.00000 -0.00000-86.11170




--------------------------------------------------------------------------------------------------------


  LATTYP: Found a hexagonal cell.
 ALAT       =     3.3197487879
 C/A-ratio  =    15.0613806029
  
  Lattice vectors:
  
 A1 = (   3.3197487879,   0.0000000000,   0.0000000000)
 A2 = (  -1.6598743939,   2.8749867845,   0.0000000000)
 A3 = (   0.0000000000,   0.0000000000,  50.0000000000)


Analysis of symmetry for initial positions (statically):
=====================================================================
 Subroutine PRICEL returns:
 Original cell was already a primitive cell.
 

 Routine SETGRP: Setting up the symmetry group for a 
 hexagonal supercell.


 Subroutine GETGRP returns: Found 12 space group operations
 (whereof  4 operations were pure point group operations)
 out of a pool of 24 trial point group operations.


The static configuration has the point symmetry C_2h.
 The point group associated with its full space group is D_3d.


Analysis of symmetry for dynamics (positions and initial velocities):
=====================================================================
 Subroutine PRICEL returns:
 Original cell was already a primitive cell.
 

 Routine SETGRP: Setting up the symmetry group for a 
 hexagonal supercell.


 Subroutine GETGRP returns: Found 12 space group operations
 (whereof  4 operations were pure point group operations)
 out of a pool of 24 trial point group operations.


The dynamic configuration has the point symmetry C_2h.
 The point group associated with its full space group is D_3d.


 Subroutine INISYM returns: Found 12 space group operations
 (whereof  4 operations are pure point group operations),
 and found     1 'primitive' translations



 MACROSCOPIC STATIC DIELECTRIC TENSOR (including local field effects in DFT)
 ------------------------------------------------------
           9.215200     0.000000    -0.000000
          -0.000000     9.215200     0.000000
           0.000000     0.000000     1.820807
 ------------------------------------------------------



--------------------------------------------------------------------------------------------------------


  LATTYP: Found a hexagonal cell.
 ALAT       =     3.3197487879
 C/A-ratio  =    15.0613806029
  
  Lattice vectors:
  
 A1 = (   3.3197487879,   0.0000000000,   0.0000000000)
 A2 = (  -1.6598743939,   2.8749867845,   0.0000000000)
 A3 = (   0.0000000000,   0.0000000000,  50.0000000000)


Analysis of symmetry for initial positions (statically):
=====================================================================
 Subroutine PRICEL returns:
 Original cell was already a primitive cell.
 

 Routine SETGRP: Setting up the symmetry group for a 
 hexagonal supercell.


 Subroutine GETGRP returns: Found 12 space group operations
 (whereof  4 operations were pure point group operations)
 out of a pool of 24 trial point group operations.


The static configuration has the point symmetry C_2h.
 The point group associated with its full space group is D_3d.


Analysis of symmetry for dynamics (positions and initial velocities):
=====================================================================
 Subroutine PRICEL returns:
 Original cell was already a primitive cell.
 

 Routine SETGRP: Setting up the symmetry group for a 
 hexagonal supercell.


 Subroutine GETGRP returns: Found 12 space group operations
 (whereof  4 operations were pure point group operations)
 out of a pool of 24 trial point group operations.


The dynamic configuration has the point symmetry C_2h.
 The point group associated with its full space group is D_3d.


 Subroutine INISYM returns: Found 12 space group operations
 (whereof  4 operations are pure point group operations),
 and found     1 'primitive' translations



--------------------------------------------------------------------------------------------------------




 MACROSCOPIC STATIC DIELECTRIC TENSOR (including local field effects in DFT)
 ------------------------------------------------------
           9.215200     0.000000    -0.000000
          -0.000000     9.215200     0.000000
           0.000000     0.000000     1.820807
 ------------------------------------------------------


 PIEZOELECTRIC TENSOR  for field in x, y, z        (e  Angst)
          XX          YY          ZZ          XY          YZ          ZX
  --------------------------------------------------------------------------------
  x    -0.00705     0.00894    -0.00152     0.00000     0.00023     0.00000
  y    -0.00985     0.01697    -0.00097     0.00000     0.00028     0.00000
  z     0.19922     0.19922     0.01874    -0.00000     0.00000     0.00000

 PIEZOELECTRIC TENSOR  for field in x, y, z        (C/m^2)
          XX          YY          ZZ          XY          YZ          ZX
  --------------------------------------------------------------------------------
  x     0.00000     0.00000     0.00000     0.00000     0.00000     0.00000
  y     0.00000     0.00000     0.00000     0.00000     0.00000     0.00000
  z     0.00000     0.00000     0.00000     0.00000     0.00000     0.00000
 
 BORN EFFECTIVE CHARGES (in e, cummulative output)
 -------------------------------------------------
 ion    1
    1    -1.77974    -0.00002     0.00003
    2     0.00000    -1.78023    -0.00006
    3     0.00000    -0.00000   -42.31493
 ion    2
    1    -1.76847    -0.00001     0.00000
    2    -0.00000    -1.76788     0.00000
    3     0.00000     0.00000    -4.64418
 ion    3
    1    -1.76847     0.00001    -0.00000
    2    -0.00000    -1.76904    -0.00000
    3     0.00000     0.00000    -4.63269
 ion    4
    1    -1.77974     0.00002    -0.00003
    2     0.00000    -1.77922     0.00006
    3     0.00000     0.00000   -42.32752
 ion    5
    1     0.86444    -0.00168     0.00019
    2     0.00000     0.86481     0.00115
    3     0.00000    -0.00000     0.09084
 ion    6
    1     0.88015    -0.00162    -0.00010
    2     0.00000     0.88048    -0.00067
    3     0.00000    -0.00000     3.59543
 ion    7
    1     0.86657     0.00172     0.00018
    2     0.00000     0.86619     0.00108
    3     0.00000    -0.00000     0.29836
 ion    8
    1     0.86723     0.00170    -0.00019
    2     0.00000     0.86686    -0.00108
    3     0.00000    -0.00000    -0.06113
 ion    9
    1     0.86723    -0.00170     0.00019
    2    -0.00000     0.86760     0.00109
    3    -0.00000    -0.00000     0.03281
 ion   10
    1     0.86657    -0.00172    -0.00018
    2    -0.00000     0.86697    -0.00109
    3     0.00000    -0.00000     0.34917
 ion   11
    1     0.88015     0.00162     0.00010
    2     0.00000     0.87983     0.00066
    3     0.00000    -0.00000     3.53651
 ion   12
    1     0.86444     0.00168    -0.00019
    2     0.00000     0.86407    -0.00114
    3    -0.00000     0.00000    -0.03435


--------------------------------------------------------------------------------------------------------


 writing wavefunctions
     LOOP+:  cpu time 1776.8089: real time 1781.6395
    4ORBIT:  cpu time    0.0000: real time    0.0000
 BZINTS: Fermi energy:  0.944789;104.000000 electrons
         Band energy:***********;  BLOECHL correction:  0.000000

 total amount of memory used by VASP on root node   226729. kBytes
========================================================================

   base      :      30000. kBytes
   nonl-proj :     172617. kBytes
   fftplans  :       2116. kBytes
   grid      :       8000. kBytes
   one-center:        968. kBytes
   wavefun   :      13028. kBytes
 
  
  
 General timing and accounting informations for this job:
 ========================================================
  
                  Total CPU time used (sec):     1780.090
                            User time (sec):     1744.036
                          System time (sec):       36.055
                         Elapsed time (sec):     1786.268
  
                   Maximum memory used (kb):      661752.
                   Average memory used (kb):           0.
  
                          Minor page faults:      8662854
                          Major page faults:            9
                 Voluntary context switches:         6112
