  15  15   0   0
  0.3632686E+02  0.3547392E-09  0.3547392E-09  0.5000000E-08  0.5000000E-15
  1.000000000000000E-004
  CAR 
 unknown system                          
     11.16472251    -59.98431140  301      4.16840084      1.00000000
    -59.984  0.0000E+00  0.0000E+00
    -59.747  0.0000E+00  0.0000E+00
    -59.510  0.0000E+00  0.0000E+00
    -59.273  0.0000E+00  0.0000E+00
    -59.036  0.0000E+00  0.0000E+00
    -58.798  0.0000E+00  0.0000E+00
    -58.561  0.0000E+00  0.0000E+00
    -58.324  0.0000E+00  0.0000E+00
    -58.087  0.0000E+00  0.0000E+00
    -57.850  0.0000E+00  0.0000E+00
    -57.613  0.0000E+00  0.0000E+00
    -57.376  0.0000E+00  0.0000E+00
    -57.138  0.0000E+00  0.0000E+00
    -56.901  0.0000E+00  0.0000E+00
    -56.664  0.0000E+00  0.1000E+02
    -56.427  0.0000E+00  0.1000E+02
    -56.190  0.0000E+00  0.1000E+02
    -55.953  0.0000E+00  0.1000E+02
    -55.715  0.0000E+00  0.1000E+02
    -55.478  0.0000E+00  0.1000E+02
    -55.241  0.0000E+00  0.1000E+02
    -55.004  0.0000E+00  0.1000E+02
    -54.767  0.0000E+00  0.1000E+02
    -54.530  0.0000E+00  0.1000E+02
    -54.292  0.0000E+00  0.1000E+02
    -54.055  0.0000E+00  0.1000E+02
    -53.818  0.0000E+00  0.1000E+02
    -53.581  0.0000E+00  0.1000E+02
    -53.344  0.0000E+00  0.1000E+02
    -53.107  0.0000E+00  0.1000E+02
    -52.869  0.0000E+00  0.1000E+02
    -52.632  0.0000E+00  0.1000E+02
    -52.395  0.0000E+00  0.1000E+02
    -52.158  0.0000E+00  0.1000E+02
    -51.921  0.0000E+00  0.1000E+02
    -51.684  0.0000E+00  0.1000E+02
    -51.446  0.0000E+00  0.1000E+02
    -51.209  0.0000E+00  0.1000E+02
    -50.972  0.0000E+00  0.1000E+02
    -50.735  0.0000E+00  0.1000E+02
    -50.498  0.0000E+00  0.1000E+02
    -50.261  0.0000E+00  0.1000E+02
    -50.023  0.0000E+00  0.1000E+02
    -49.786  0.0000E+00  0.1000E+02
    -49.549  0.0000E+00  0.1000E+02
    -49.312  0.0000E+00  0.1000E+02
    -49.075  0.0000E+00  0.1000E+02
    -48.838  0.0000E+00  0.1000E+02
    -48.600  0.0000E+00  0.1000E+02
    -48.363  0.0000E+00  0.1000E+02
    -48.126  0.0000E+00  0.1000E+02
    -47.889  0.0000E+00  0.1000E+02
    -47.652  0.0000E+00  0.1000E+02
    -47.415  0.0000E+00  0.1000E+02
    -47.177  0.0000E+00  0.1000E+02
    -46.940  0.0000E+00  0.1000E+02
    -46.703  0.0000E+00  0.1000E+02
    -46.466  0.0000E+00  0.1000E+02
    -46.229  0.0000E+00  0.1000E+02
    -45.992  0.0000E+00  0.1000E+02
    -45.755  0.0000E+00  0.1000E+02
    -45.517  0.0000E+00  0.1000E+02
    -45.280  0.0000E+00  0.1000E+02
    -45.043  0.0000E+00  0.1000E+02
    -44.806  0.0000E+00  0.1000E+02
    -44.569  0.0000E+00  0.1000E+02
    -44.332  0.0000E+00  0.1000E+02
    -44.094  0.0000E+00  0.1000E+02
    -43.857  0.0000E+00  0.1000E+02
    -43.620  0.0000E+00  0.1000E+02
    -43.383  0.0000E+00  0.1000E+02
    -43.146  0.0000E+00  0.1000E+02
    -42.909  0.0000E+00  0.1000E+02
    -42.671  0.0000E+00  0.1000E+02
    -42.434  0.0000E+00  0.1000E+02
    -42.197  0.0000E+00  0.1000E+02
    -41.960  0.0000E+00  0.1000E+02
    -41.723  0.0000E+00  0.1000E+02
    -41.486  0.0000E+00  0.1000E+02
    -41.248  0.0000E+00  0.1000E+02
    -41.011  0.0000E+00  0.1000E+02
    -40.774  0.0000E+00  0.1000E+02
    -40.537  0.0000E+00  0.1000E+02
    -40.300  0.0000E+00  0.1000E+02
    -40.063  0.0000E+00  0.1000E+02
    -39.825  0.0000E+00  0.1000E+02
    -39.588  0.0000E+00  0.1000E+02
    -39.351  0.0000E+00  0.1000E+02
    -39.114  0.0000E+00  0.1000E+02
    -38.877  0.0000E+00  0.1000E+02
    -38.640  0.0000E+00  0.1000E+02
    -38.402  0.0000E+00  0.1000E+02
    -38.165  0.0000E+00  0.1000E+02
    -37.928  0.0000E+00  0.1000E+02
    -37.691  0.0000E+00  0.1000E+02
    -37.454  0.0000E+00  0.1000E+02
    -37.217  0.0000E+00  0.1000E+02
    -36.979  0.0000E+00  0.1000E+02
    -36.742  0.0000E+00  0.1000E+02
    -36.505  0.0000E+00  0.1000E+02
    -36.268  0.0000E+00  0.1000E+02
    -36.031  0.0000E+00  0.1000E+02
    -35.794  0.0000E+00  0.1000E+02
    -35.556  0.0000E+00  0.1000E+02
    -35.319  0.0000E+00  0.1000E+02
    -35.082  0.0000E+00  0.1000E+02
    -34.845  0.0000E+00  0.1000E+02
    -34.608  0.0000E+00  0.1000E+02
    -34.371  0.0000E+00  0.1000E+02
    -34.133  0.0000E+00  0.1000E+02
    -33.896  0.0000E+00  0.1000E+02
    -33.659  0.0000E+00  0.1000E+02
    -33.422  0.0000E+00  0.1000E+02
    -33.185  0.0000E+00  0.1000E+02
    -32.948  0.0000E+00  0.1000E+02
    -32.711  0.0000E+00  0.1000E+02
    -32.473  0.0000E+00  0.1000E+02
    -32.236  0.0000E+00  0.1000E+02
    -31.999  0.0000E+00  0.1000E+02
    -31.762  0.0000E+00  0.1000E+02
    -31.525  0.0000E+00  0.1000E+02
    -31.288  0.0000E+00  0.1000E+02
    -31.050  0.0000E+00  0.1000E+02
    -30.813  0.3456E+03  0.3403E+02
    -30.576  0.0000E+00  0.4000E+02
    -30.339  0.0000E+00  0.4000E+02
    -30.102  0.0000E+00  0.4000E+02
    -29.865  0.0000E+00  0.4000E+02
    -29.627  0.0000E+00  0.4000E+02
    -29.390  0.0000E+00  0.4000E+02
    -29.153  0.0000E+00  0.4000E+02
    -28.916  0.0000E+00  0.4000E+02
    -28.679  0.0000E+00  0.4000E+02
    -28.442  0.0000E+00  0.4000E+02
    -28.204  0.0000E+00  0.4000E+02
    -27.967  0.0000E+00  0.4000E+02
    -27.730  0.0000E+00  0.4000E+02
    -27.493  0.0000E+00  0.4000E+02
    -27.256  0.0000E+00  0.4000E+02
    -27.019  0.0000E+00  0.4000E+02
    -26.781  0.0000E+00  0.4000E+02
    -26.544  0.0000E+00  0.4000E+02
    -26.307  0.0000E+00  0.4000E+02
    -26.070  0.0000E+00  0.4000E+02
    -25.833  0.0000E+00  0.4000E+02
    -25.596  0.0000E+00  0.4000E+02
    -25.358  0.0000E+00  0.4000E+02
    -25.121  0.0000E+00  0.4000E+02
    -24.884  0.0000E+00  0.4000E+02
    -24.647  0.0000E+00  0.4000E+02
    -24.410  0.0000E+00  0.4000E+02
    -24.173  0.0000E+00  0.4000E+02
    -23.935  0.0000E+00  0.4000E+02
    -23.698  0.0000E+00  0.4000E+02
    -23.461  0.0000E+00  0.4000E+02
    -23.224  0.0000E+00  0.4000E+02
    -22.987  0.0000E+00  0.4000E+02
    -22.750  0.0000E+00  0.4000E+02
    -22.512  0.0000E+00  0.4000E+02
    -22.275  0.0000E+00  0.4000E+02
    -22.038  0.0000E+00  0.4000E+02
    -21.801  0.0000E+00  0.4000E+02
    -21.564  0.0000E+00  0.4000E+02
    -21.327  0.0000E+00  0.4000E+02
    -21.090  0.0000E+00  0.4000E+02
    -20.852  0.0000E+00  0.4000E+02
    -20.615  0.0000E+00  0.4000E+02
    -20.378  0.0000E+00  0.4000E+02
    -20.141  0.0000E+00  0.4000E+02
    -19.904  0.0000E+00  0.4000E+02
    -19.667  0.0000E+00  0.4000E+02
    -19.429  0.0000E+00  0.4000E+02
    -19.192  0.0000E+00  0.4000E+02
    -18.955  0.0000E+00  0.4000E+02
    -18.718  0.0000E+00  0.4000E+02
    -18.481  0.0000E+00  0.4000E+02
    -18.244  0.0000E+00  0.4000E+02
    -18.006  0.0000E+00  0.4000E+02
    -17.769  0.0000E+00  0.4000E+02
    -17.532  0.0000E+00  0.4000E+02
    -17.295  0.0000E+00  0.4000E+02
    -17.058  0.0000E+00  0.4000E+02
    -16.821  0.0000E+00  0.4000E+02
    -16.583  0.0000E+00  0.4000E+02
    -16.346  0.0000E+00  0.4000E+02
    -16.109  0.0000E+00  0.4000E+02
    -15.872  0.0000E+00  0.4000E+02
    -15.635  0.0000E+00  0.4000E+02
    -15.398  0.0000E+00  0.4000E+02
    -15.160  0.0000E+00  0.4000E+02
    -14.923  0.0000E+00  0.4000E+02
    -14.686  0.0000E+00  0.4000E+02
    -14.449  0.0000E+00  0.4000E+02
    -14.212  0.0000E+00  0.4000E+02
    -13.975  0.0000E+00  0.4000E+02
    -13.737  0.0000E+00  0.4000E+02
    -13.500  0.0000E+00  0.4000E+02
    -13.263  0.0000E+00  0.4000E+02
    -13.026  0.0000E+00  0.4000E+02
    -12.789  0.0000E+00  0.4000E+02
    -12.552  0.0000E+00  0.4000E+02
    -12.314  0.0000E+00  0.4000E+02
    -12.077  0.0000E+00  0.4000E+02
    -11.840  0.0000E+00  0.4000E+02
    -11.603  0.0000E+00  0.4000E+02
    -11.366  0.0000E+00  0.4000E+02
    -11.129  0.0000E+00  0.4000E+02
    -10.891  0.0000E+00  0.4000E+02
    -10.654  0.0000E+00  0.4000E+02
    -10.417  0.0000E+00  0.4000E+02
    -10.180  0.0000E+00  0.4000E+02
     -9.943  0.0000E+00  0.4000E+02
     -9.706  0.0000E+00  0.4000E+02
     -9.468  0.0000E+00  0.4000E+02
     -9.231  0.0000E+00  0.4000E+02
     -8.994  0.0000E+00  0.4000E+02
     -8.757  0.4570E+00  0.4002E+02
     -8.520  0.2227E+01  0.4038E+02
     -8.283  0.2861E+01  0.4104E+02
     -8.046  0.3029E+01  0.4174E+02
     -7.808  0.4388E+01  0.4256E+02
     -7.571  0.6034E+01  0.4381E+02
     -7.334  0.8219E+01  0.4559E+02
     -7.097  0.9478E+01  0.4767E+02
     -6.860  0.1236E+02  0.5021E+02
     -6.623  0.1556E+02  0.5390E+02
     -6.385  0.1427E+02  0.5774E+02
     -6.148  0.0000E+00  0.6000E+02
     -5.911  0.0000E+00  0.6000E+02
     -5.674  0.0000E+00  0.6000E+02
     -5.437  0.0000E+00  0.6000E+02
     -5.200  0.0000E+00  0.6000E+02
     -4.962  0.0000E+00  0.6000E+02
     -4.725  0.0000E+00  0.6000E+02
     -4.488  0.0000E+00  0.6000E+02
     -4.251  0.0000E+00  0.6000E+02
     -4.014  0.0000E+00  0.6000E+02
     -3.777  0.0000E+00  0.6000E+02
     -3.539  0.0000E+00  0.6000E+02
     -3.302  0.0000E+00  0.6000E+02
     -3.065  0.0000E+00  0.6000E+02
     -2.828  0.0000E+00  0.6000E+02
     -2.591  0.0000E+00  0.6000E+02
     -2.354  0.0000E+00  0.6000E+02
     -2.116  0.0000E+00  0.6000E+02
     -1.879  0.0000E+00  0.6000E+02
     -1.642  0.0000E+00  0.6000E+02
     -1.405  0.3473E+01  0.6038E+02
     -1.168  0.5809E+01  0.6158E+02
     -0.931  0.7782E+01  0.6321E+02
     -0.693  0.1484E+02  0.6571E+02
     -0.456  0.1608E+02  0.7026E+02
     -0.219  0.8466E+01  0.7305E+02
      0.018  0.6238E+01  0.7490E+02
      0.255  0.7381E+01  0.7634E+02
      0.492  0.1830E+02  0.7899E+02
      0.730  0.1029E+02  0.8239E+02
      0.967  0.9626E+01  0.8634E+02
      1.204  0.1276E+02  0.8882E+02
      1.441  0.1566E+02  0.9211E+02
      1.678  0.1501E+02  0.9588E+02
      1.915  0.9682E+01  0.9857E+02
      2.153  0.8895E+01  0.1007E+03
      2.390  0.2178E+02  0.1055E+03
      2.627  0.2747E+02  0.1104E+03
      2.864  0.1718E+02  0.1148E+03
      3.101  0.1116E+02  0.1189E+03
      3.338  0.1948E+02  0.1214E+03
      3.575  0.1800E+02  0.1256E+03
      3.813  0.7096E+01  0.1289E+03
      4.050  0.1602E+01  0.1299E+03
      4.287  0.0000E+00  0.1300E+03
      4.524  0.0000E+00  0.1300E+03
      4.761  0.0000E+00  0.1300E+03
      4.998  0.3193E+01  0.1302E+03
      5.236  0.1367E+02  0.1324E+03
      5.473  0.1254E+02  0.1367E+03
      5.710  0.1986E+02  0.1422E+03
      5.947  0.1126E+02  0.1467E+03
      6.184  0.1604E+02  0.1498E+03
      6.421  0.1397E+02  0.1537E+03
      6.659  0.8784E+01  0.1564E+03
      6.896  0.8170E+01  0.1583E+03
      7.133  0.1448E+02  0.1602E+03
      7.370  0.9723E+01  0.1639E+03
      7.607  0.7557E+01  0.1663E+03
      7.844  0.2999E+01  0.1677E+03
      8.082  0.0000E+00  0.1680E+03
      8.319  0.0000E+00  0.1680E+03
      8.556  0.0000E+00  0.1680E+03
      8.793  0.0000E+00  0.1680E+03
      9.030  0.0000E+00  0.1680E+03
      9.267  0.0000E+00  0.1680E+03
      9.505  0.0000E+00  0.1680E+03
      9.742  0.0000E+00  0.1680E+03
      9.979  0.0000E+00  0.1680E+03
     10.216  0.0000E+00  0.1680E+03
     10.453  0.0000E+00  0.1680E+03
     10.690  0.0000E+00  0.1680E+03
     10.928  0.0000E+00  0.1680E+03
     11.165  0.0000E+00  0.1680E+03
