       N       E                     dE             d eps       ncg     rms          rms(c)
DAV:   1     0.911011514606E+03    0.91101E+03   -0.53881E+04  7644   0.990E+02
DAV:   2    -0.234454210412E+02   -0.93446E+03   -0.91936E+03  9632   0.371E+02
DAV:   3    -0.100986958368E+03   -0.77542E+02   -0.76745E+02  8680   0.104E+02
DAV:   4    -0.105503136735E+03   -0.45162E+01   -0.44874E+01 10584   0.296E+01
DAV:   5    -0.105661802786E+03   -0.15867E+00   -0.15824E+00  9408   0.506E+00    0.197E+01
DAV:   6    -0.100164476504E+03    0.54973E+01   -0.12058E+02 11060   0.371E+01    0.141E+01
DAV:   7    -0.943949591547E+02    0.57695E+01   -0.46540E+01 10248   0.234E+01    0.595E+00
DAV:   8    -0.940291726110E+02    0.36579E+00   -0.42887E+00 10472   0.809E+00    0.961E-01
DAV:   9    -0.940254944226E+02    0.36782E-02   -0.28172E-01  8820   0.213E+00    0.617E-01
DAV:  10    -0.940180419078E+02    0.74525E-02   -0.53570E-02  9576   0.988E-01    0.285E-01
DAV:  11    -0.940169743578E+02    0.10676E-02   -0.14517E-02 10836   0.557E-01    0.128E-01
DAV:  12    -0.940167184666E+02    0.25589E-03   -0.32030E-03  8932   0.322E-01    0.608E-02
DAV:  13    -0.940165970217E+02    0.12144E-03   -0.99652E-04  9268   0.158E-01    0.253E-02
DAV:  14    -0.940165867988E+02    0.10223E-04   -0.31860E-04  8372   0.511E-02    0.142E-02
DAV:  15    -0.940166088833E+02   -0.22084E-04   -0.36369E-05 10472   0.264E-02    0.105E-02
DAV:  16    -0.940166742941E+02   -0.65411E-04   -0.32424E-05  8288   0.164E-02    0.590E-03
DAV:  17    -0.940167060479E+02   -0.31754E-04   -0.70718E-06  9436   0.110E-02    0.445E-03
DAV:  18    -0.940167824952E+02   -0.76447E-04   -0.96926E-06  8092   0.758E-03    0.200E-03
DAV:  19    -0.940168180628E+02   -0.35568E-04   -0.42838E-06  8288   0.368E-03    0.123E-03
DAV:  20    -0.940168384979E+02   -0.20435E-04   -0.17915E-06  8316   0.290E-03    0.537E-04
DAV:  21    -0.940168447527E+02   -0.62548E-05   -0.22905E-07  8344   0.151E-03    0.370E-04
DAV:  22    -0.940168490524E+02   -0.42997E-05   -0.10349E-07  7392   0.942E-04    0.191E-04
DAV:  23    -0.940168508271E+02   -0.17747E-05   -0.67021E-08  7028   0.521E-04    0.119E-04
DAV:  24    -0.940168518031E+02   -0.97603E-06   -0.27343E-08  6916   0.346E-04    0.882E-05
DAV:  25    -0.940168526389E+02   -0.83576E-06   -0.16011E-08  6608   0.302E-04    0.541E-05
DAV:  26    -0.940168531330E+02   -0.49411E-06   -0.47496E-09  6356   0.215E-04    0.357E-05
DAV:  27    -0.940168535878E+02   -0.45483E-06   -0.71916E-09  6440   0.190E-04    0.212E-05
DAV:  28    -0.940168536883E+02   -0.10042E-06   -0.14644E-09  6216   0.144E-04    0.104E-05
DAV:  29    -0.940168537079E+02   -0.19676E-07   -0.40160E-10  6188   0.101E-04    0.562E-06
DAV:  30    -0.940168537091E+02   -0.11223E-08   -0.11602E-10  6216   0.646E-05
   1 F= -.99080698E+02 E0= -.99080698E+02  d E =0.000000E+00
 Linear response reoptimize wavefunctions
DAV:   1    -0.940168537100E+02    0.50638E+01   -0.64202E-11  6216   0.465E-05
DAV:   2    -0.940168537101E+02   -0.94587E-10   -0.18211E-11  5964   0.288E-05
 Linear response G [H, r] |phi>, progress :
  Direction:   1
       N       E                     dE             d eps       ncg     rms
RMM:   1    -0.623561482233E+03   -0.62356E+03   -0.10517E+04  6733   0.906E+02
RMM:   2    -0.582513165042E+03    0.41048E+02   -0.30393E+02  8724   0.108E+02
RMM:   3    -0.648778102351E+03   -0.66265E+02   -0.40152E+02 11604   0.340E+01
RMM:   4    -0.655083659365E+03   -0.63056E+01   -0.24299E+01 12876   0.919E+00
RMM:   5    -0.655734329127E+03   -0.65067E+00   -0.38194E+00 13971   0.266E+00
RMM:   6    -0.655796440622E+03   -0.62111E-01   -0.51481E-01 14111   0.976E-01
RMM:   7    -0.655813714472E+03   -0.17274E-01   -0.18475E-01 15405   0.388E-01
RMM:   8    -0.655816167254E+03   -0.24528E-02   -0.25077E-02 15661   0.160E-01
RMM:   9    -0.655817438867E+03   -0.12716E-02   -0.12405E-02 16037   0.757E-02
RMM:  10    -0.655817432028E+03    0.68387E-05   -0.28304E-03 16370   0.373E-02
RMM:  11    -0.655817484994E+03   -0.52966E-04   -0.13671E-03 16798   0.220E-02
RMM:  12    -0.655817447007E+03    0.37988E-04   -0.34381E-04 17041   0.149E-02
RMM:  13    -0.655817469003E+03   -0.21996E-04   -0.38629E-04 17080   0.121E-02
RMM:  14    -0.655817459727E+03    0.92753E-05   -0.23964E-04 17062   0.108E-02
RMM:  15    -0.655817460269E+03   -0.54154E-06   -0.22833E-04 17057   0.103E-02
RMM:  16    -0.655817456280E+03    0.39892E-05   -0.18332E-04 17056   0.101E-02
 Linear response G [H, r] |phi>, progress :
  Direction:   2
       N       E                     dE             d eps       ncg     rms
RMM:   1    -0.603651372196E+03   -0.60365E+03   -0.10786E+04  6677   0.905E+02
RMM:   2    -0.612293528349E+03   -0.86422E+01   -0.29141E+02  8629   0.108E+02
RMM:   3    -0.690345644940E+03   -0.78052E+02   -0.46535E+02 11508   0.347E+01
RMM:   4    -0.696972783096E+03   -0.66271E+01   -0.28630E+01 12860   0.936E+00
RMM:   5    -0.697554757975E+03   -0.58197E+00   -0.33128E+00 13752   0.277E+00
RMM:   6    -0.697625332499E+03   -0.70575E-01   -0.42438E-01 14098   0.101E+00
RMM:   7    -0.697647449660E+03   -0.22117E-01   -0.11484E-01 15269   0.397E-01
RMM:   8    -0.697652049732E+03   -0.46001E-02   -0.11755E-02 15583   0.163E-01
RMM:   9    -0.697653199450E+03   -0.11497E-02   -0.19388E-04 16126   0.756E-02
RMM:  10    -0.697653753730E+03   -0.55428E-03    0.14240E-03 16285   0.374E-02
RMM:  11    -0.697653821401E+03   -0.67671E-04    0.23365E-03 16819   0.221E-02
RMM:  12    -0.697653841214E+03   -0.19813E-04    0.26300E-03 16969   0.154E-02
RMM:  13    -0.697653837800E+03    0.34142E-05    0.28011E-03 17049   0.126E-02
RMM:  14    -0.697653829615E+03    0.81846E-05    0.29245E-03 17046   0.115E-02
RMM:  15    -0.697653826884E+03    0.27307E-05    0.29642E-03 17004   0.111E-02
RMM:  16    -0.697653827062E+03   -0.17774E-06    0.29660E-03 16953   0.109E-02
 Linear response G [H, r] |phi>, progress :
  Direction:   3
       N       E                     dE             d eps       ncg     rms
RMM:   1    -0.643978623539E+03   -0.64398E+03   -0.11442E+04  7274   0.895E+02
RMM:   2    -0.613079608381E+03    0.30899E+02   -0.45569E+02  9023   0.105E+02
RMM:   3    -0.680299879620E+03   -0.67220E+02   -0.35080E+02 11717   0.322E+01
RMM:   4    -0.684705203454E+03   -0.44053E+01   -0.25332E+01 12680   0.914E+00
RMM:   5    -0.685202158982E+03   -0.49696E+00   -0.42746E+00 13666   0.283E+00
RMM:   6    -0.685258248155E+03   -0.56089E-01   -0.61243E-01 14335   0.102E+00
RMM:   7    -0.685279423579E+03   -0.21175E-01   -0.18589E-01 14658   0.400E-01
RMM:   8    -0.685282140397E+03   -0.27168E-02   -0.27007E-02 15305   0.165E-01
RMM:   9    -0.685283255860E+03   -0.11155E-02   -0.84274E-03 15313   0.756E-02
RMM:  10    -0.685283545845E+03   -0.28999E-03   -0.17485E-03 16072   0.366E-02
RMM:  11    -0.685283603329E+03   -0.57483E-04   -0.70521E-04 16207   0.212E-02
RMM:  12    -0.685283636087E+03   -0.32758E-04   -0.46056E-04 16640   0.145E-02
RMM:  13    -0.685283639387E+03   -0.33004E-05   -0.38029E-04 16744   0.119E-02
RMM:  14    -0.685283642607E+03   -0.32201E-05   -0.37219E-04 16666   0.109E-02
RMM:  15    -0.685283643035E+03   -0.42764E-06   -0.36718E-04 16655   0.106E-02
RMM:  16    -0.685283641847E+03    0.11882E-05   -0.35298E-04 16626   0.105E-02
 Linear response to external field (no local field effect), progress :
  Direction:   1
       N       E                     dE             d eps       ncg     rms          rms(c)
RMM:   1    -0.118562278791E+02   -0.11856E+02   -0.69242E+01 14311   0.114E+01
RMM:   2    -0.202505149946E+02   -0.83943E+01   -0.52301E-02  9628   0.340E+00
RMM:   3    -0.204805864944E+02   -0.23007E+00   -0.40196E-01 12458   0.102E+00
RMM:   4    -0.204938580052E+02   -0.13272E-01   -0.49230E-02 12751   0.282E-01
RMM:   5    -0.204954591068E+02   -0.16011E-02   -0.72228E-03 14308   0.100E-01
RMM:   6    -0.204957144136E+02   -0.25531E-03   -0.11754E-03 14534   0.375E-02
RMM:   7    -0.204957678103E+02   -0.53397E-04   -0.25004E-04 14139   0.150E-02
RMM:   8    -0.204957780007E+02   -0.10190E-04   -0.56495E-05 14084   0.642E-03
RMM:   9    -0.204957805087E+02   -0.25080E-05   -0.18946E-05 13544   0.311E-03
RMM:  10    -0.204957811111E+02   -0.60246E-06   -0.10260E-05 14053   0.180E-03
RMM:  11    -0.204957812663E+02   -0.15514E-06   -0.82341E-06 13882   0.131E-03
RMM:  12    -0.204957813151E+02   -0.48781E-07   -0.79277E-06 13674   0.114E-03
RMM:  13    -0.204957813174E+02   -0.22793E-08   -0.77635E-06 13214   0.108E-03
RMM:  14    -0.204957813315E+02   -0.14170E-07   -0.78658E-06 13031   0.106E-03
 Linear response to external field (no local field effect), progress :
  Direction:   2
       N       E                     dE             d eps       ncg     rms          rms(c)
RMM:   1    -0.132531840512E+02   -0.13253E+02   -0.77411E+01 14195   0.117E+01
RMM:   2    -0.213244947098E+02   -0.80713E+01   -0.84071E-02  9441   0.350E+00
RMM:   3    -0.215443786315E+02   -0.21988E+00   -0.39323E-01 12215   0.105E+00
RMM:   4    -0.215574141623E+02   -0.13036E-01   -0.41835E-02 12955   0.286E-01
RMM:   5    -0.215589256321E+02   -0.15115E-02   -0.70429E-03 14255   0.102E-01
RMM:   6    -0.215591291405E+02   -0.20351E-03   -0.11033E-03 14540   0.381E-02
RMM:   7    -0.215591767393E+02   -0.47599E-04   -0.21653E-04 14217   0.151E-02
RMM:   8    -0.215591847217E+02   -0.79823E-05   -0.54287E-05 14276   0.654E-03
RMM:   9    -0.215591864658E+02   -0.17442E-05   -0.18362E-05 13638   0.315E-03
RMM:  10    -0.215591868773E+02   -0.41142E-06   -0.11793E-05 14006   0.188E-03
RMM:  11    -0.215591869474E+02   -0.70175E-07   -0.10033E-05 13895   0.139E-03
RMM:  12    -0.215591869714E+02   -0.23944E-07   -0.97091E-06 13626   0.121E-03
RMM:  13    -0.215591869693E+02    0.20333E-08   -0.95667E-06 13250   0.115E-03
RMM:  14    -0.215591869694E+02   -0.10928E-09   -0.95394E-06 13012   0.113E-03
 Linear response to external field (no local field effect), progress :
  Direction:   3
       N       E                     dE             d eps       ncg     rms          rms(c)
RMM:   1    -0.955381003514E+01   -0.95538E+01   -0.48418E+01 14174   0.110E+01
RMM:   2    -0.128752665827E+02   -0.33215E+01   -0.11182E+00  9097   0.312E+00
RMM:   3    -0.129704595131E+02   -0.95193E-01   -0.30049E-01 11714   0.945E-01
RMM:   4    -0.129784591876E+02   -0.79997E-02   -0.29453E-02 12909   0.269E-01
RMM:   5    -0.129792168077E+02   -0.75762E-03   -0.40164E-03 13429   0.939E-02
RMM:   6    -0.129793456778E+02   -0.12887E-03   -0.64290E-04 14329   0.353E-02
RMM:   7    -0.129793717199E+02   -0.26042E-04   -0.12621E-04 14115   0.137E-02
RMM:   8    -0.129793767809E+02   -0.50610E-05   -0.30428E-05 13547   0.591E-03
RMM:   9    -0.129793780639E+02   -0.12830E-05   -0.13593E-05 13300   0.291E-03
RMM:  10    -0.129793783898E+02   -0.32593E-06   -0.10143E-05 13638   0.174E-03
RMM:  11    -0.129793784835E+02   -0.93662E-07   -0.93566E-06 13634   0.130E-03
RMM:  12    -0.129793785133E+02   -0.29848E-07   -0.93203E-06 13386   0.114E-03
RMM:  13    -0.129793785030E+02    0.10359E-07   -0.90437E-06 12815   0.108E-03
RMM:  14    -0.129793785185E+02   -0.15532E-07   -0.92582E-06 12593   0.106E-03
 Linear response to external field, progress :
  Direction:   1
       N       E                     dE             d eps       ncg     rms          rms(c)
RMM:   1    -0.126169984194E+02   -0.12617E+02   -0.73949E+01 63597   0.114E+01
RMM:   2    -0.207922903063E+02   -0.81753E+01   -0.55757E-02 42112   0.338E+00    0.878E+00
RMM:   3    -0.203678972847E+02    0.42439E+00   -0.79520E-01 47408   0.339E+00    0.475E+00
RMM:   4    -0.208867291228E+02   -0.51883E+00   -0.84958E-01 47446   0.329E+00    0.748E-01
RMM:   5    -0.210031594786E+02   -0.11643E+00   -0.97778E-02 51868   0.998E-01    0.151E-01
RMM:   6    -0.210320331689E+02   -0.28874E-01   -0.16153E-02 58079   0.251E-01    0.742E-02
RMM:   7    -0.210367048958E+02   -0.46717E-02    0.15561E-03 57496   0.101E-01    0.426E-02
RMM:   8    -0.210398525910E+02   -0.31477E-02   -0.30047E-03 58690   0.514E-02    0.139E-02
RMM:   9    -0.210395016259E+02    0.35097E-03   -0.29526E-04 59282   0.209E-02    0.684E-03
RMM:  10    -0.210400236182E+02   -0.52199E-03    0.21064E-04 56966   0.104E-02    0.301E-03
RMM:  11    -0.210404191751E+02   -0.39556E-03   -0.94930E-05 60998   0.511E-03    0.150E-03
RMM:  12    -0.210404292398E+02   -0.10065E-04    0.42436E-05 67228   0.245E-03    0.723E-04
RMM:  13    -0.210405157319E+02   -0.86492E-04   -0.78766E-06 56933   0.175E-03    0.316E-04
RMM:  14    -0.210405365433E+02   -0.20811E-04   -0.18224E-05 65340   0.121E-03    0.167E-04
RMM:  15    -0.210405417515E+02   -0.52082E-05   -0.26128E-06 64640   0.109E-03    0.176E-04
RMM:  16    -0.210405412337E+02    0.51787E-06   -0.74843E-06 65859   0.101E-03    0.101E-04
RMM:  17    -0.210405425927E+02   -0.13591E-05   -0.21941E-06 63509   0.101E-03    0.135E-04
RMM:  18    -0.210405425353E+02    0.57456E-07   -0.68077E-06 59923   0.989E-04    0.891E-05
RMM:  19    -0.210405423317E+02    0.20361E-06   -0.35810E-06 57874   0.987E-04    0.135E-04
RMM:  20    -0.210405423810E+02   -0.49324E-07   -0.58432E-06 58343   0.988E-04    0.820E-05
RMM:  21    -0.210405420661E+02    0.31486E-06   -0.36682E-06 57840   0.988E-04    0.132E-04
RMM:  22    -0.210405422860E+02   -0.21986E-06   -0.57697E-06 57197   0.987E-04    0.816E-05
RMM:  23    -0.210405420267E+02    0.25930E-06   -0.39173E-06 56963   0.987E-04    0.128E-04
RMM:  24    -0.210405422618E+02   -0.23508E-06   -0.58080E-06 56967   0.987E-04    0.824E-05
RMM:  25    -0.210405420178E+02    0.24391E-06   -0.38141E-06 56939   0.987E-04    0.124E-04
RMM:  26    -0.210405422273E+02   -0.20942E-06   -0.57656E-06 56885   0.987E-04    0.828E-05
RMM:  27    -0.210405420012E+02    0.22603E-06   -0.36503E-06 56818   0.987E-04    0.120E-04
RMM:  28    -0.210405422134E+02   -0.21214E-06   -0.58212E-06 56971   0.987E-04    0.833E-05
RMM:  29    -0.210405420289E+02    0.18452E-06   -0.38629E-06 56808   0.988E-04    0.117E-04
RMM:  30    -0.210405421805E+02   -0.15165E-06   -0.55532E-06 56947   0.988E-04    0.835E-05
RMM:  31    -0.210405420260E+02    0.15448E-06   -0.38425E-06 56809   0.988E-04    0.113E-04
RMM:  32    -0.210405421960E+02   -0.17002E-06   -0.58699E-06 56865   0.988E-04    0.836E-05
RMM:  33    -0.210405419886E+02    0.20747E-06   -0.37012E-06 56742   0.988E-04    0.110E-04
RMM:  34    -0.210405421844E+02   -0.19587E-06   -0.56047E-06 56884   0.988E-04    0.835E-05
RMM:  35    -0.210405420058E+02    0.17863E-06   -0.38679E-06 56850   0.988E-04    0.107E-04
RMM:  36    -0.210405421638E+02   -0.15798E-06   -0.55753E-06 56872   0.988E-04    0.834E-05
RMM:  37    -0.210405420106E+02    0.15319E-06   -0.38582E-06 56839   0.988E-04    0.105E-04
RMM:  38    -0.210405421882E+02   -0.17756E-06   -0.56860E-06 56867   0.988E-04    0.831E-05
RMM:  39    -0.210405419858E+02    0.20241E-06   -0.37874E-06 56737   0.988E-04    0.102E-04
RMM:  40    -0.210405421670E+02   -0.18129E-06   -0.56890E-06 56942   0.988E-04    0.827E-05
RMM:  41    -0.210405420166E+02    0.15042E-06   -0.39721E-06 56767   0.988E-04    0.995E-05
RMM:  42    -0.210405421712E+02   -0.15453E-06   -0.54434E-06 56878   0.988E-04    0.823E-05
RMM:  43    -0.210405420026E+02    0.16856E-06   -0.39257E-06 56823   0.988E-04    0.971E-05
RMM:  44    -0.210405421684E+02   -0.16585E-06   -0.56857E-06 56826   0.988E-04    0.816E-05
RMM:  45    -0.210405419966E+02    0.17184E-06   -0.37942E-06 56810   0.988E-04    0.949E-05
RMM:  46    -0.210405421661E+02   -0.16945E-06   -0.54659E-06 56909   0.988E-04    0.810E-05
RMM:  47    -0.210405420271E+02    0.13899E-06   -0.40653E-06 56735   0.988E-04    0.927E-05
RMM:  48    -0.210405421631E+02   -0.13604E-06   -0.54986E-06 56873   0.988E-04    0.803E-05
RMM:  49    -0.210405420165E+02    0.14665E-06   -0.39752E-06 56762   0.989E-04    0.906E-05
RMM:  50    -0.210405421658E+02   -0.14932E-06   -0.55184E-06 56913   0.989E-04    0.795E-05
RMM:  51    -0.210405419936E+02    0.17217E-06   -0.39056E-06 56749   0.989E-04    0.886E-05
RMM:  52    -0.210405421611E+02   -0.16753E-06   -0.55555E-06 56929   0.989E-04    0.787E-05
RMM:  53    -0.210405420022E+02    0.15899E-06   -0.40819E-06 56789   0.989E-04    0.867E-05
 Linear response to external field, progress :
  Direction:   2
       N       E                     dE             d eps       ncg     rms          rms(c)
RMM:   1    -0.126470621332E+02   -0.12647E+02   -0.74250E+01 35222   0.115E+01
RMM:   2    -0.208003273999E+02   -0.81533E+01   -0.14648E-01 23674   0.340E+00    0.878E+00
RMM:   3    -0.203535795965E+02    0.44675E+00   -0.64280E-01 26132   0.339E+00    0.475E+00
RMM:   4    -0.208403238190E+02   -0.48674E+00   -0.38448E-01 26176   0.329E+00    0.746E-01
RMM:   5    -0.209983601139E+02   -0.15804E+00   -0.52322E-02 28706   0.996E-01    0.171E-01
RMM:   6    -0.210309582080E+02   -0.32598E-01   -0.36922E-02 32263   0.276E-01    0.991E-02
RMM:   7    -0.210337175767E+02   -0.27594E-02    0.86425E-03 33399   0.107E-01    0.504E-02
RMM:   8    -0.210391021749E+02   -0.53846E-02    0.30770E-03 29673   0.629E-02    0.150E-02
RMM:   9    -0.210397375849E+02   -0.63541E-03   -0.31983E-03 34501   0.229E-02    0.800E-03
RMM:  10    -0.210396445614E+02    0.93024E-04    0.38822E-04 30248   0.120E-02    0.393E-03
RMM:  11    -0.210404172530E+02   -0.77269E-03   -0.51609E-04 32290   0.614E-03    0.137E-03
RMM:  12    -0.210403911443E+02    0.26109E-04   -0.11114E-05 33470   0.302E-03    0.698E-04
RMM:  13    -0.210404432816E+02   -0.52137E-04    0.10840E-04 34071   0.181E-03    0.501E-04
RMM:  14    -0.210405051169E+02   -0.61835E-04   -0.60371E-05 32638   0.139E-03    0.239E-04
RMM:  15    -0.210405028438E+02    0.22731E-05   -0.20616E-05 36547   0.109E-03    0.146E-04
RMM:  16    -0.210405051645E+02   -0.23206E-05   -0.31299E-06 35387   0.104E-03    0.130E-04
RMM:  17    -0.210405055443E+02   -0.37982E-06   -0.10013E-05 35822   0.991E-04    0.137E-04
RMM:  18    -0.210405054235E+02    0.12074E-06   -0.69578E-06 32616   0.978E-04    0.109E-04
RMM:  19    -0.210405051953E+02    0.22822E-06   -0.64713E-06 33094   0.980E-04    0.133E-04
RMM:  20    -0.210405049419E+02    0.25344E-06   -0.66796E-06 32358   0.978E-04    0.106E-04
RMM:  21    -0.210405047880E+02    0.15386E-06   -0.59681E-06 32035   0.978E-04    0.129E-04
RMM:  22    -0.210405048106E+02   -0.22616E-07   -0.67994E-06 32026   0.978E-04    0.107E-04
RMM:  23    -0.210405047454E+02    0.65264E-07   -0.60121E-06 31820   0.978E-04    0.126E-04
RMM:  24    -0.210405047454E+02   -0.38391E-10   -0.63897E-06 31787   0.978E-04    0.107E-04
RMM:  25    -0.210405047166E+02    0.28781E-07   -0.60940E-06 31809   0.978E-04    0.123E-04
RMM:  26    -0.210405047712E+02   -0.54541E-07   -0.65436E-06 31753   0.978E-04    0.106E-04
RMM:  27    -0.210405047108E+02    0.60411E-07   -0.60024E-06 31797   0.978E-04    0.121E-04
RMM:  28    -0.210405047723E+02   -0.61566E-07   -0.63715E-06 31698   0.978E-04    0.106E-04
RMM:  29    -0.210405046910E+02    0.81312E-07   -0.60564E-06 31784   0.978E-04    0.119E-04
RMM:  30    -0.210405047748E+02   -0.83793E-07   -0.65135E-06 31671   0.978E-04    0.105E-04
RMM:  31    -0.210405046787E+02    0.96111E-07   -0.59522E-06 31722   0.978E-04    0.117E-04
RMM:  32    -0.210405047630E+02   -0.84321E-07   -0.64001E-06 31723   0.978E-04    0.104E-04
RMM:  33    -0.210405046948E+02    0.68241E-07   -0.60491E-06 31717   0.978E-04    0.115E-04
 Linear response to external field, progress :
  Direction:   3
       N       E                     dE             d eps       ncg     rms          rms(c)
RMM:   1    -0.955381003514E+01   -0.95538E+01   -0.48418E+01 14174   0.110E+01
RMM:   2    -0.128752665827E+02   -0.33215E+01   -0.11182E+00  9097   0.312E+00    0.701E+00
RMM:   3    -0.167392493037E+02   -0.38640E+01   -0.13804E+02 10636   0.591E+00    0.228E+00
RMM:   4    -0.341840194611E+01    0.13321E+02   -0.14686E+00 11807   0.260E+00    0.148E+00
RMM:   5    -0.472838751203E+01   -0.13100E+01   -0.16523E+01 11627   0.137E+00    0.109E+00
RMM:   6    -0.756959495954E+01   -0.28412E+01   -0.48576E+01 10997   0.128E+00    0.393E-01
RMM:   7    -0.545392127877E+01    0.21157E+01   -0.27741E+01 12804   0.534E-01    0.339E-01
RMM:   8    -0.370493719165E+01    0.17490E+01   -0.10458E+01 11632   0.343E-01    0.209E-01
RMM:   9    -0.319977824811E+01    0.50516E+00   -0.54608E+00 11805   0.200E-01    0.966E-02
RMM:  10    -0.291647594010E+01    0.28330E+00   -0.26357E+00 12396   0.124E-01    0.629E-02
RMM:  11    -0.275569183319E+01    0.16078E+00   -0.10375E+00 11450   0.767E-02    0.300E-02
RMM:  12    -0.271841265770E+01    0.37279E-01   -0.65888E-01 11431   0.368E-02    0.212E-02
RMM:  13    -0.269653574578E+01    0.21877E-01   -0.42377E-01  9923   0.395E-02    0.123E-02
RMM:  14    -0.269384404679E+01    0.26917E-02   -0.38978E-01 11740   0.185E-02    0.850E-03
RMM:  15    -0.267125012279E+01    0.22594E-01   -0.15492E-01 10446   0.169E-02    0.540E-03
RMM:  16    -0.265505249685E+01    0.16198E-01    0.11110E-02 11028   0.954E-03    0.363E-03
RMM:  17    -0.264871287344E+01    0.63396E-02    0.76459E-02 10813   0.664E-03    0.270E-03
RMM:  18    -0.265113502820E+01   -0.24222E-02    0.53460E-02 11103   0.579E-03    0.169E-03
RMM:  19    -0.265950043319E+01   -0.83654E-02   -0.30138E-02 10921   0.381E-03    0.104E-03
RMM:  20    -0.265729481464E+01    0.22056E-02   -0.83951E-03 11043   0.291E-03    0.577E-04
RMM:  21    -0.265506931670E+01    0.22255E-02    0.13532E-02 11162   0.186E-03    0.255E-04
RMM:  22    -0.265549305938E+01   -0.42374E-03    0.91251E-03 11259   0.144E-03    0.173E-04
RMM:  23    -0.265591009511E+01   -0.41704E-03    0.48969E-03 12434   0.606E-04    0.823E-05
RMM:  24    -0.265607449581E+01   -0.16440E-03    0.32377E-03 12572   0.402E-04    0.393E-05
RMM:  25    -0.265615853611E+01   -0.84040E-04    0.23903E-03 13626   0.259E-04    0.263E-05
RMM:  26    -0.265636391543E+01   -0.20538E-03    0.33070E-04 12921   0.238E-04    0.260E-05
RMM:  27    -0.265608090720E+01    0.28301E-03    0.31566E-03 12896   0.236E-04    0.197E-05
RMM:  28    -0.265656088247E+01   -0.47998E-03   -0.16428E-03 11261   0.217E-04    0.199E-05
RMM:  29    -0.265621237548E+01    0.34851E-03    0.18424E-03 11240   0.218E-04    0.213E-05
