 vasp.5.4.1 24Jun15 (build Apr 13 2016 13:07:19) complex                        
  
 executed on           IFC91_ompi date 2019.09.14  01:46:59
 running on   28 total cores
 distrk:  each k-point on   28 cores,    1 groups
 distr:  one band on NCORES_PER_BAND=   1 cores,   28 groups


--------------------------------------------------------------------------------------------------------


 INCAR:
 POTCAR:    PAW_PBE Mo_sv_GW 05Dec2013            
 POTCAR:    PAW_PBE Te_GW 22Mar2012               

 ----------------------------------------------------------------------------- 
|                                                                             |
|           W    W    AA    RRRRR   N    N  II  N    N   GGGG   !!!           |
|           W    W   A  A   R    R  NN   N  II  NN   N  G    G  !!!           |
|           W    W  A    A  R    R  N N  N  II  N N  N  G       !!!           |
|           W WW W  AAAAAA  RRRRR   N  N N  II  N  N N  G  GGG   !            |
|           WW  WW  A    A  R   R   N   NN  II  N   NN  G    G                |
|           W    W  A    A  R    R  N    N  II  N    N   GGGG   !!!           |
|                                                                             |
|      For optimal performance we recommend to set                            |
|        NCORE= 4 - approx SQRT( number of cores)                             |
|      NCORE specifies how many cores store one orbital (NPAR=cpu/NCORE).     |
|      This setting can  greatly improve the performance of VASP for DFT.     |
|      The default, NPAR=number of cores might be grossly inefficient         |
|      on modern multi-core architectures or massively parallel machines.     |
|      Do your own testing !!!!                                               |
|      Unfortunately you need to use the default for GW and RPA calculations. |
|      (for HF NCORE is supported but not extensively tested yet)             |
|                                                                             |
 ----------------------------------------------------------------------------- 

 POTCAR:    PAW_PBE Mo_sv_GW 05Dec2013            
   VRHFIN =Mo: 4s4p5s4d                                                         
   LEXCH  = PE                                                                  
   EATOM  =  1861.5185 eV,  136.8178 Ry                                         
                                                                                
   TITEL  = PAW_PBE Mo_sv_GW 05Dec2013                                          
   LULTRA =        F    use ultrasoft PP ?                                      
   IUNSCR =        1    unscreen: 0-lin 1-nonlin 2-no                           
   RPACOR =    2.000    partial core radius                                     
   POMASS =   95.940; ZVAL   =   14.000    mass and valenz                      
   RCORE  =    2.100    outmost cutoff radius                                   
   RWIGS  =    2.100; RWIGS  =    1.111    wigner-seitz radius (au A)           
   ENMAX  =  344.914; ENMIN  =  258.686 eV                                      
   RCLOC  =    1.508    cutoff for local pot                                    
   LCOR   =        T    correct aug charges                                     
   LPAW   =        T    paw PP                                                  
   EAUG   =  964.741                                                            
   DEXC   =    0.000                                                            
   RMAX   =    2.149    core radius for proj-oper                               
   RAUG   =    1.300    factor for augmentation sphere                          
   RDEP   =    2.179    radius for radial grids                                 
   RDEPT  =    1.677    core radius for aug-charge                              
                                                                                
   Atomic configuration                                                         
   12 entries                                                                   
     n  l   j            E        occ.                                          
     1  0  0.50    -19816.9363   2.0000                                         
     2  0  0.50     -2796.7578   2.0000                                         
     2  1  1.50     -2499.7842   6.0000                                         
     3  0  0.50      -474.2095   2.0000                                         
     3  1  1.50      -376.9135   6.0000                                         
     3  2  2.50      -218.6898  10.0000                                         
     4  0  0.50       -62.1983   2.0000                                         
     4  0  0.50       -66.6685   0.0000                                         
     4  1  1.50       -36.4414   6.0000                                         
     4  1  1.50       -40.8175   0.0000                                         
     4  2  2.50        -2.3086   6.0000                                         
     4  3  2.50        -1.3606   0.0000                                         
   Description                                                                  
     l       E           TYP  RCUT    TYP  RCUT                                 
     0    -62.1983072     23  1.950                                             
     0     27.2116520     23  1.950                                             
     0    149.6640860     23  1.950                                             
     1    -36.4413666     23  1.800                                             
     1    -40.8174780     23  1.800                                             
     1     54.4233040     23  1.800                                             
     2     -2.3085597     23  2.000                                             
     2     -6.8029130     23  2.000                                             
     2    136.0582600     23  2.000                                             
     3     13.6058260     23  2.100                                             
     3     81.6349560     23  2.100                                             
  local pseudopotential read in
  partial core-charges read in
  partial kinetic energy density read in
  kinetic energy density of atom read in
  atomic valenz-charges read in
  non local Contribution for L=           0  read in
    real space projection operators read in
  non local Contribution for L=           0  read in
    real space projection operators read in
  non local Contribution for L=           0  read in
    real space projection operators read in
  non local Contribution for L=           1  read in
    real space projection operators read in
  non local Contribution for L=           1  read in
    real space projection operators read in
  non local Contribution for L=           1  read in
    real space projection operators read in
  non local Contribution for L=           2  read in
    real space projection operators read in
  non local Contribution for L=           2  read in
    real space projection operators read in
  non local Contribution for L=           2  read in
    real space projection operators read in
  non local Contribution for L=           3  read in
    real space projection operators read in
  non local Contribution for L=           3  read in
    real space projection operators read in
    PAW grid and wavefunctions read in
 
   number of l-projection  operators is LMAX  =          11
   number of lm-projection operators is LMMAX =          41
 
 POTCAR:    PAW_PBE Te_GW 22Mar2012               
   VRHFIN =Te: s2p4                                                             
   LEXCH  = PE                                                                  
   EATOM  =   223.2721 eV,   16.4100 Ry                                         
                                                                                
   TITEL  = PAW_PBE Te_GW 22Mar2012                                             
   LULTRA =        F    use ultrasoft PP ?                                      
   IUNSCR =        1    unscreen: 0-lin 1-nonlin 2-no                           
   RPACOR =    2.200    partial core radius                                     
   POMASS =  127.600; ZVAL   =    6.000    mass and valenz                      
   RCORE  =    2.600    outmost cutoff radius                                   
   RWIGS  =    2.900; RWIGS  =    1.535    wigner-seitz radius (au A)           
   ENMAX  =  174.982; ENMIN  =  131.236 eV                                      
   ICORE  =        3    local potential                                         
   LCOR   =        T    correct aug charges                                     
   LPAW   =        T    paw PP                                                  
   EAUG   =  368.792                                                            
   DEXC   =    0.000                                                            
   RMAX   =    2.665    core radius for proj-oper                               
   RAUG   =    1.300    factor for augmentation sphere                          
   RDEP   =    2.724    radius for radial grids                                 
   RDEPT  =    2.174    core radius for aug-charge                              
                                                                                
   Atomic configuration                                                         
   13 entries                                                                   
     n  l   j            E        occ.                                          
     1  0  0.50    -31621.2075   2.0000                                         
     2  0  0.50     -4848.7941   2.0000                                         
     2  1  1.50     -4352.1960   6.0000                                         
     3  0  0.50      -964.9612   2.0000                                         
     3  1  1.50      -803.6179   6.0000                                         
     3  2  2.50      -559.8710  10.0000                                         
     4  0  0.50      -164.3522   2.0000                                         
     4  1  1.50      -114.3756   6.0000                                         
     4  2  2.50       -41.6483  10.0000                                         
     5  0  0.50       -15.1072   2.0000                                         
     5  1  0.50        -5.9526   4.0000                                         
     5  2  1.50        -6.8029   0.0000                                         
     4  3  2.50        -6.8029   0.0000                                         
   Description                                                                  
     l       E           TYP  RCUT    TYP  RCUT                                 
     0    -15.1072389     23  2.300                                             
     0     68.0291300     23  2.300                                             
     1     -5.9526306     23  2.300                                             
     1     95.2407820     23  2.300                                             
     2      1.3605826     23  2.600                                             
     2     68.0291300     23  2.600                                             
     3     -1.3605826     23  2.300                                             
  local pseudopotential read in
  partial core-charges read in
  partial kinetic energy density read in
  kinetic energy density of atom read in
  atomic valenz-charges read in
  non local Contribution for L=           0  read in
    real space projection operators read in
  non local Contribution for L=           0  read in
    real space projection operators read in
  non local Contribution for L=           1  read in
    real space projection operators read in
  non local Contribution for L=           1  read in
    real space projection operators read in
  non local Contribution for L=           2  read in
    real space projection operators read in
  non local Contribution for L=           2  read in
    real space projection operators read in
    PAW grid and wavefunctions read in
 
   number of l-projection  operators is LMAX  =           6
   number of lm-projection operators is LMMAX =          18
 
  PAW_PBE Mo_sv_GW 05Dec2013            :
 energy of atom  1       EATOM=-1861.5185
 kinetic energy error for atom=    0.1105 (will be added to EATOM!!)
  PAW_PBE Te_GW 22Mar2012               :
 energy of atom  2       EATOM= -223.2721
 kinetic energy error for atom=    0.0019 (will be added to EATOM!!)
 
 
 POSCAR: Mo Te                                   
  positions in cartesian coordinates
  No initial velocities read in
 exchange correlation table for  LEXCH =        8
   RHO(1)=    0.500       N(1)  =     2000
   RHO(2)=  100.500       N(2)  =     4000
 


--------------------------------------------------------------------------------------------------------


 ion  position               nearest neighbor table
   1  0.167  0.333  0.221-   6 2.73   7 2.73   6 2.73   7 2.73   6 2.73   7 2.73
   2  0.833  0.667  0.360-   8 2.73   9 2.73   8 2.73   9 2.73   8 2.73   9 2.73
   3  0.167  0.333  0.500-  10 2.73  11 2.73  10 2.73  11 2.73  10 2.73  11 2.73
   4  0.833  0.667  0.640-  12 2.73  13 2.73  12 2.73  13 2.73  12 2.73  13 2.73
   5  0.167  0.333  0.779-  14 2.73  15 2.73  14 2.73  15 2.73  14 2.73  15 2.73
   6  0.833  0.667  0.257-   1 2.73   1 2.73   1 2.73   7 3.61
   7  0.833  0.667  0.185-   1 2.73   1 2.73   1 2.73   6 3.61
   8  0.167  0.333  0.397-   2 2.73   2 2.73   2 2.73   9 3.61
   9  0.167  0.333  0.324-   2 2.73   2 2.73   2 2.73   8 3.61
  10  0.833  0.667  0.536-   3 2.73   3 2.73   3 2.73  11 3.61
  11  0.833  0.667  0.464-   3 2.73   3 2.73   3 2.73  10 3.61
  12  0.167  0.333  0.676-   4 2.73   4 2.73   4 2.73  13 3.61
  13  0.167  0.333  0.603-   4 2.73   4 2.73   4 2.73  12 3.61
  14  0.833  0.667  0.815-   5 2.73   5 2.73   5 2.73  15 3.61
  15  0.833  0.667  0.743-   5 2.73   5 2.73   5 2.73  14 3.61
 
  LATTYP: Found a hexagonal cell.
 ALAT       =     3.5473923118
 C/A-ratio  =    14.0948605637
  
  Lattice vectors:
  
 A1 = (   3.5473923118,   0.0000000000,   0.0000000000)
 A2 = (  -1.7736961559,   3.0721318592,   0.0000000000)
 A3 = (   0.0000000000,   0.0000000000,  50.0000000000)


Analysis of symmetry for initial positions (statically):
=====================================================================
 Subroutine PRICEL returns:
 Original cell was already a primitive cell.
 

 Routine SETGRP: Setting up the symmetry group for a 
 hexagonal supercell.


 Subroutine GETGRP returns: Found 12 space group operations
 (whereof  4 operations were pure point group operations)
 out of a pool of 24 trial point group operations.


The static configuration has the point symmetry C_2v.
 The point group associated with its full space group is D_3h.


Analysis of symmetry for dynamics (positions and initial velocities):
=====================================================================
 Subroutine PRICEL returns:
 Original cell was already a primitive cell.
 

 Routine SETGRP: Setting up the symmetry group for a 
 hexagonal supercell.


 Subroutine GETGRP returns: Found 12 space group operations
 (whereof  4 operations were pure point group operations)
 out of a pool of 24 trial point group operations.


The dynamic configuration has the point symmetry C_2v.
 The point group associated with its full space group is D_3h.


 Subroutine INISYM returns: Found 12 space group operations
 (whereof  4 operations are pure point group operations),
 and found     1 'primitive' translations

 
 
 KPOINTS: KPOINTS created by Atomic Simulation Env

Automatic generation of k-mesh.
Space group operators:
 irot       det(A)        alpha          n_x          n_y          n_z        tau_x        tau_y        tau_z
    1     1.000000     0.000001     1.000000     0.000000     0.000000     0.000000     0.000000     0.000000
    2    -1.000000   179.999999     0.000000     0.000000     1.000000     0.000000     0.000000     0.000000
    3    -1.000000   180.000000     1.000000     0.000000     0.000000     0.000000     0.000000     0.000000
    4     1.000000   179.999999     0.000000     1.000000     0.000000     0.000000     0.000000     0.000000
    5    -1.000000    60.000000     0.000000     0.000000    -1.000000     0.000000     0.500000     0.000000
    6     1.000000   120.000000     0.000000     0.000000    -1.000000     0.500000     0.500000     0.000000
    7     1.000000   120.000000     0.000000     0.000000     1.000000     0.000000     0.500000     0.000000
    8    -1.000000    60.000000     0.000000     0.000000     1.000000     0.500000     0.500000     0.000000
    9     1.000000   180.000000     0.866025    -0.500000     0.000000     0.500000     0.500000     0.000000
   10    -1.000000   180.000000     0.500000    -0.866025     0.000000     0.000000     0.500000     0.000000
   11    -1.000000   180.000000    -0.500000    -0.866025     0.000000     0.500000     0.500000     0.000000
   12     1.000000   180.000000     0.866025     0.500000     0.000000     0.000000     0.500000     0.000000
 
 Subroutine IBZKPT returns following result:
 ===========================================
 
 Found     37 irreducible k-points:
 
 Following reciprocal coordinates:
            Coordinates               Weight
  0.000000  0.000000  0.000000      1.000000
  0.055556  0.000000  0.000000      6.000000
  0.111111  0.000000  0.000000      6.000000
  0.166667  0.000000  0.000000      6.000000
  0.222222  0.000000  0.000000      6.000000
  0.277778  0.000000  0.000000      6.000000
  0.333333  0.000000  0.000000      6.000000
  0.388889  0.000000  0.000000      6.000000
  0.444444  0.000000  0.000000      6.000000
  0.500000  0.000000  0.000000      3.000000
  0.055556  0.055556  0.000000      6.000000
  0.111111  0.055556  0.000000     12.000000
  0.166667  0.055556  0.000000     12.000000
  0.222222  0.055556  0.000000     12.000000
  0.277778  0.055556  0.000000     12.000000
  0.333333  0.055556  0.000000     12.000000
  0.388889  0.055556  0.000000     12.000000
  0.444444  0.055556  0.000000     12.000000
  0.111111  0.111111  0.000000      6.000000
  0.166667  0.111111  0.000000     12.000000
  0.222222  0.111111  0.000000     12.000000
  0.277778  0.111111  0.000000     12.000000
  0.333333  0.111111  0.000000     12.000000
  0.388889  0.111111  0.000000     12.000000
  0.444444  0.111111  0.000000      6.000000
  0.166667  0.166667  0.000000      6.000000
  0.222222  0.166667  0.000000     12.000000
  0.277778  0.166667  0.000000     12.000000
  0.333333  0.166667  0.000000     12.000000
  0.388889  0.166667  0.000000     12.000000
  0.222222  0.222222  0.000000      6.000000
  0.277778  0.222222  0.000000     12.000000
  0.333333  0.222222  0.000000     12.000000
  0.388889  0.222222  0.000000      6.000000
  0.277778  0.277778  0.000000      6.000000
  0.333333  0.277778  0.000000     12.000000
  0.333333  0.333333  0.000000      2.000000
 
 Following cartesian coordinates:
            Coordinates               Weight
  0.000000  0.000000  0.000000      1.000000
  0.015661  0.009042  0.000000      6.000000
  0.031322  0.018084  0.000000      6.000000
  0.046983  0.027126  0.000000      6.000000
  0.062644  0.036167  0.000000      6.000000
  0.078305  0.045209  0.000000      6.000000
  0.093966  0.054251  0.000000      6.000000
  0.109627  0.063293  0.000000      6.000000
  0.125288  0.072335  0.000000      6.000000
  0.140949  0.081377  0.000000      3.000000
  0.015661  0.027126  0.000000      6.000000
  0.031322  0.036167  0.000000     12.000000
  0.046983  0.045209  0.000000     12.000000
  0.062644  0.054251  0.000000     12.000000
  0.078305  0.063293  0.000000     12.000000
  0.093966  0.072335  0.000000     12.000000
  0.109627  0.081377  0.000000     12.000000
  0.125288  0.090419  0.000000     12.000000
  0.031322  0.054251  0.000000      6.000000
  0.046983  0.063293  0.000000     12.000000
  0.062644  0.072335  0.000000     12.000000
  0.078305  0.081377  0.000000     12.000000
  0.093966  0.090419  0.000000     12.000000
  0.109627  0.099460  0.000000     12.000000
  0.125288  0.108502  0.000000      6.000000
  0.046983  0.081377  0.000000      6.000000
  0.062644  0.090419  0.000000     12.000000
  0.078305  0.099460  0.000000     12.000000
  0.093966  0.108502  0.000000     12.000000
  0.109627  0.117544  0.000000     12.000000
  0.062644  0.108502  0.000000      6.000000
  0.078305  0.117544  0.000000     12.000000
  0.093966  0.126586  0.000000     12.000000
  0.109627  0.135628  0.000000      6.000000
  0.078305  0.135628  0.000000      6.000000
  0.093966  0.144670  0.000000     12.000000
  0.093966  0.162753  0.000000      2.000000
 
 TETIRR: Found    169 inequivalent tetrahedra from     1944
 
 Subroutine IBZKPT_HF returns following result:
 ==============================================
 
 Found    324 k-points in 1st BZ
 the following    324 k-points will be used (e.g. in the exchange kernel)
 Following reciprocal coordinates:   # in IRBZ
  0.000000  0.000000  0.000000    0.00308642   1 t-inv F
  0.055556  0.000000  0.000000    0.00308642   2 t-inv F
  0.111111  0.000000  0.000000    0.00308642   3 t-inv F
  0.166667  0.000000  0.000000    0.00308642   4 t-inv F
  0.222222  0.000000  0.000000    0.00308642   5 t-inv F
  0.277778  0.000000  0.000000    0.00308642   6 t-inv F
  0.333333  0.000000  0.000000    0.00308642   7 t-inv F
  0.388889  0.000000  0.000000    0.00308642   8 t-inv F
  0.444444  0.000000  0.000000    0.00308642   9 t-inv F
  0.500000  0.000000  0.000000    0.00308642  10 t-inv F
  0.055556  0.055556  0.000000    0.00308642  11 t-inv F
  0.111111  0.055556  0.000000    0.00308642  12 t-inv F
  0.166667  0.055556  0.000000    0.00308642  13 t-inv F
  0.222222  0.055556  0.000000    0.00308642  14 t-inv F
  0.277778  0.055556  0.000000    0.00308642  15 t-inv F
  0.333333  0.055556  0.000000    0.00308642  16 t-inv F
  0.388889  0.055556  0.000000    0.00308642  17 t-inv F
  0.444444  0.055556  0.000000    0.00308642  18 t-inv F
  0.111111  0.111111  0.000000    0.00308642  19 t-inv F
  0.166667  0.111111  0.000000    0.00308642  20 t-inv F
  0.222222  0.111111  0.000000    0.00308642  21 t-inv F
  0.277778  0.111111  0.000000    0.00308642  22 t-inv F
  0.333333  0.111111  0.000000    0.00308642  23 t-inv F
  0.388889  0.111111  0.000000    0.00308642  24 t-inv F
  0.444444  0.111111  0.000000    0.00308642  25 t-inv F
  0.166667  0.166667  0.000000    0.00308642  26 t-inv F
  0.222222  0.166667  0.000000    0.00308642  27 t-inv F
  0.277778  0.166667  0.000000    0.00308642  28 t-inv F
  0.333333  0.166667  0.000000    0.00308642  29 t-inv F
  0.388889  0.166667  0.000000    0.00308642  30 t-inv F
  0.222222  0.222222  0.000000    0.00308642  31 t-inv F
  0.277778  0.222222  0.000000    0.00308642  32 t-inv F
  0.333333  0.222222  0.000000    0.00308642  33 t-inv F
  0.388889  0.222222  0.000000    0.00308642  34 t-inv F
  0.277778  0.277778  0.000000    0.00308642  35 t-inv F
  0.333333  0.277778  0.000000    0.00308642  36 t-inv F
  0.333333  0.333333  0.000000    0.00308642  37 t-inv F
 -0.055556  0.055556  0.000000    0.00308642   2 t-inv F
  0.000000 -0.055556 -0.000000    0.00308642   2 t-inv F
 -0.111111  0.111111  0.000000    0.00308642   3 t-inv F
  0.000000 -0.111111 -0.000000    0.00308642   3 t-inv F
 -0.166667  0.166667  0.000000    0.00308642   4 t-inv F
  0.000000 -0.166667 -0.000000    0.00308642   4 t-inv F
 -0.222222  0.222222  0.000000    0.00308642   5 t-inv F
  0.000000 -0.222222 -0.000000    0.00308642   5 t-inv F
 -0.277778  0.277778  0.000000    0.00308642   6 t-inv F
  0.000000 -0.277778 -0.000000    0.00308642   6 t-inv F
 -0.333333  0.333333  0.000000    0.00308642   7 t-inv F
  0.000000 -0.333333 -0.000000    0.00308642   7 t-inv F
 -0.388889  0.388889  0.000000    0.00308642   8 t-inv F
  0.000000 -0.388889 -0.000000    0.00308642   8 t-inv F
 -0.444444  0.444444  0.000000    0.00308642   9 t-inv F
  0.000000 -0.444444 -0.000000    0.00308642   9 t-inv F
 -0.500000  0.500000  0.000000    0.00308642  10 t-inv F
  0.000000 -0.500000 -0.000000    0.00308642  10 t-inv F
 -0.055556  0.111111  0.000000    0.00308642  11 t-inv F
  0.055556 -0.111111 -0.000000    0.00308642  11 t-inv F
 -0.111111  0.055556  0.000000    0.00308642  11 t-inv F
 -0.055556 -0.055556 -0.000000    0.00308642  11 t-inv F
  0.111111 -0.055556  0.000000    0.00308642  11 t-inv F
 -0.111111  0.166667  0.000000    0.00308642  12 t-inv F
  0.055556 -0.166667 -0.000000    0.00308642  12 t-inv F
 -0.166667  0.111111  0.000000    0.00308642  12 t-inv F
 -0.055556 -0.111111 -0.000000    0.00308642  12 t-inv F
  0.166667 -0.055556  0.000000    0.00308642  12 t-inv F
 -0.166667  0.222222  0.000000    0.00308642  13 t-inv F
  0.055556 -0.222222 -0.000000    0.00308642  13 t-inv F
 -0.222222  0.166667  0.000000    0.00308642  13 t-inv F
 -0.055556 -0.166667 -0.000000    0.00308642  13 t-inv F
  0.222222 -0.055556  0.000000    0.00308642  13 t-inv F
 -0.222222  0.277778  0.000000    0.00308642  14 t-inv F
  0.055556 -0.277778 -0.000000    0.00308642  14 t-inv F
 -0.277778  0.222222  0.000000    0.00308642  14 t-inv F
 -0.055556 -0.222222 -0.000000    0.00308642  14 t-inv F
  0.277778 -0.055556  0.000000    0.00308642  14 t-inv F
 -0.277778  0.333333  0.000000    0.00308642  15 t-inv F
  0.055556 -0.333333 -0.000000    0.00308642  15 t-inv F
 -0.333333  0.277778  0.000000    0.00308642  15 t-inv F
 -0.055556 -0.277778 -0.000000    0.00308642  15 t-inv F
  0.333333 -0.055556  0.000000    0.00308642  15 t-inv F
 -0.333333  0.388889  0.000000    0.00308642  16 t-inv F
  0.055556 -0.388889 -0.000000    0.00308642  16 t-inv F
 -0.388889  0.333333  0.000000    0.00308642  16 t-inv F
 -0.055556 -0.333333 -0.000000    0.00308642  16 t-inv F
  0.388889 -0.055556  0.000000    0.00308642  16 t-inv F
 -0.388889  0.444444  0.000000    0.00308642  17 t-inv F
  0.055556 -0.444444 -0.000000    0.00308642  17 t-inv F
 -0.444444  0.388889  0.000000    0.00308642  17 t-inv F
 -0.055556 -0.388889 -0.000000    0.00308642  17 t-inv F
  0.444444 -0.055556  0.000000    0.00308642  17 t-inv F
 -0.444444  0.500000  0.000000    0.00308642  18 t-inv F
  0.055556 -0.500000 -0.000000    0.00308642  18 t-inv F
 -0.500000  0.444444  0.000000    0.00308642  18 t-inv F
 -0.055556 -0.444444 -0.000000    0.00308642  18 t-inv F
  0.500000 -0.055556  0.000000    0.00308642  18 t-inv F
 -0.111111  0.222222  0.000000    0.00308642  19 t-inv F
  0.111111 -0.222222 -0.000000    0.00308642  19 t-inv F
 -0.222222  0.111111  0.000000    0.00308642  19 t-inv F
 -0.111111 -0.111111 -0.000000    0.00308642  19 t-inv F
  0.222222 -0.111111  0.000000    0.00308642  19 t-inv F
 -0.166667  0.277778  0.000000    0.00308642  20 t-inv F
  0.111111 -0.277778 -0.000000    0.00308642  20 t-inv F
 -0.277778  0.166667  0.000000    0.00308642  20 t-inv F
 -0.111111 -0.166667 -0.000000    0.00308642  20 t-inv F
  0.277778 -0.111111  0.000000    0.00308642  20 t-inv F
 -0.222222  0.333333  0.000000    0.00308642  21 t-inv F
  0.111111 -0.333333 -0.000000    0.00308642  21 t-inv F
 -0.333333  0.222222  0.000000    0.00308642  21 t-inv F
 -0.111111 -0.222222 -0.000000    0.00308642  21 t-inv F
  0.333333 -0.111111  0.000000    0.00308642  21 t-inv F
 -0.277778  0.388889  0.000000    0.00308642  22 t-inv F
  0.111111 -0.388889 -0.000000    0.00308642  22 t-inv F
 -0.388889  0.277778  0.000000    0.00308642  22 t-inv F
 -0.111111 -0.277778 -0.000000    0.00308642  22 t-inv F
  0.388889 -0.111111  0.000000    0.00308642  22 t-inv F
 -0.333333  0.444444  0.000000    0.00308642  23 t-inv F
  0.111111 -0.444444 -0.000000    0.00308642  23 t-inv F
 -0.444444  0.333333  0.000000    0.00308642  23 t-inv F
 -0.111111 -0.333333 -0.000000    0.00308642  23 t-inv F
  0.444444 -0.111111  0.000000    0.00308642  23 t-inv F
 -0.388889  0.500000  0.000000    0.00308642  24 t-inv F
  0.111111 -0.500000 -0.000000    0.00308642  24 t-inv F
 -0.500000  0.388889  0.000000    0.00308642  24 t-inv F
 -0.111111 -0.388889 -0.000000    0.00308642  24 t-inv F
  0.500000 -0.111111  0.000000    0.00308642  24 t-inv F
 -0.444444  0.555556  0.000000    0.00308642  25 t-inv F
  0.111111 -0.555556 -0.000000    0.00308642  25 t-inv F
 -0.555556  0.444444  0.000000    0.00308642  25 t-inv F
 -0.111111 -0.444444 -0.000000    0.00308642  25 t-inv F
  0.555556 -0.111111  0.000000    0.00308642  25 t-inv F
 -0.166667  0.333333  0.000000    0.00308642  26 t-inv F
  0.166667 -0.333333 -0.000000    0.00308642  26 t-inv F
 -0.333333  0.166667  0.000000    0.00308642  26 t-inv F
 -0.166667 -0.166667 -0.000000    0.00308642  26 t-inv F
  0.333333 -0.166667  0.000000    0.00308642  26 t-inv F
 -0.222222  0.388889  0.000000    0.00308642  27 t-inv F
  0.166667 -0.388889 -0.000000    0.00308642  27 t-inv F
 -0.388889  0.222222  0.000000    0.00308642  27 t-inv F
 -0.166667 -0.222222 -0.000000    0.00308642  27 t-inv F
  0.388889 -0.166667  0.000000    0.00308642  27 t-inv F
 -0.277778  0.444444  0.000000    0.00308642  28 t-inv F
  0.166667 -0.444444 -0.000000    0.00308642  28 t-inv F
 -0.444444  0.277778  0.000000    0.00308642  28 t-inv F
 -0.166667 -0.277778 -0.000000    0.00308642  28 t-inv F
  0.444444 -0.166667  0.000000    0.00308642  28 t-inv F
 -0.333333  0.500000  0.000000    0.00308642  29 t-inv F
  0.166667 -0.500000 -0.000000    0.00308642  29 t-inv F
 -0.500000  0.333333  0.000000    0.00308642  29 t-inv F
 -0.166667 -0.333333 -0.000000    0.00308642  29 t-inv F
  0.500000 -0.166667  0.000000    0.00308642  29 t-inv F
 -0.388889  0.555556  0.000000    0.00308642  30 t-inv F
  0.166667 -0.555556 -0.000000    0.00308642  30 t-inv F
 -0.555556  0.388889  0.000000    0.00308642  30 t-inv F
 -0.166667 -0.388889 -0.000000    0.00308642  30 t-inv F
  0.555556 -0.166667  0.000000    0.00308642  30 t-inv F
 -0.222222  0.444444  0.000000    0.00308642  31 t-inv F
  0.222222 -0.444444 -0.000000    0.00308642  31 t-inv F
 -0.444444  0.222222  0.000000    0.00308642  31 t-inv F
 -0.222222 -0.222222 -0.000000    0.00308642  31 t-inv F
  0.444444 -0.222222  0.000000    0.00308642  31 t-inv F
 -0.277778  0.500000  0.000000    0.00308642  32 t-inv F
  0.222222 -0.500000 -0.000000    0.00308642  32 t-inv F
 -0.500000  0.277778  0.000000    0.00308642  32 t-inv F
 -0.222222 -0.277778 -0.000000    0.00308642  32 t-inv F
  0.500000 -0.222222  0.000000    0.00308642  32 t-inv F
 -0.333333  0.555556  0.000000    0.00308642  33 t-inv F
  0.222222 -0.555556 -0.000000    0.00308642  33 t-inv F
 -0.555556  0.333333  0.000000    0.00308642  33 t-inv F
 -0.222222 -0.333333 -0.000000    0.00308642  33 t-inv F
  0.555556 -0.222222  0.000000    0.00308642  33 t-inv F
 -0.388889  0.611111  0.000000    0.00308642  34 t-inv F
  0.222222 -0.611111 -0.000000    0.00308642  34 t-inv F
 -0.611111  0.388889  0.000000    0.00308642  34 t-inv F
 -0.222222 -0.388889 -0.000000    0.00308642  34 t-inv F
  0.611111 -0.222222  0.000000    0.00308642  34 t-inv F
 -0.277778  0.555556  0.000000    0.00308642  35 t-inv F
  0.277778 -0.555556 -0.000000    0.00308642  35 t-inv F
 -0.555556  0.277778  0.000000    0.00308642  35 t-inv F
 -0.277778 -0.277778 -0.000000    0.00308642  35 t-inv F
  0.555556 -0.277778  0.000000    0.00308642  35 t-inv F
 -0.333333  0.611111  0.000000    0.00308642  36 t-inv F
  0.277778 -0.611111 -0.000000    0.00308642  36 t-inv F
 -0.611111  0.333333  0.000000    0.00308642  36 t-inv F
 -0.277778 -0.333333 -0.000000    0.00308642  36 t-inv F
  0.611111 -0.277778  0.000000    0.00308642  36 t-inv F
 -0.333333  0.666667  0.000000    0.00308642  37 t-inv F
 -0.055556 -0.000000 -0.000000    0.00308642   2 t-inv T
  0.055556 -0.055556 -0.000000    0.00308642   2 t-inv T
 -0.000000  0.055556  0.000000    0.00308642   2 t-inv T
 -0.111111 -0.000000 -0.000000    0.00308642   3 t-inv T
  0.111111 -0.111111 -0.000000    0.00308642   3 t-inv T
 -0.000000  0.111111  0.000000    0.00308642   3 t-inv T
 -0.166667 -0.000000 -0.000000    0.00308642   4 t-inv T
  0.166667 -0.166667 -0.000000    0.00308642   4 t-inv T
 -0.000000  0.166667  0.000000    0.00308642   4 t-inv T
 -0.222222 -0.000000 -0.000000    0.00308642   5 t-inv T
  0.222222 -0.222222 -0.000000    0.00308642   5 t-inv T
 -0.000000  0.222222  0.000000    0.00308642   5 t-inv T
 -0.277778 -0.000000 -0.000000    0.00308642   6 t-inv T
  0.277778 -0.277778 -0.000000    0.00308642   6 t-inv T
 -0.000000  0.277778  0.000000    0.00308642   6 t-inv T
 -0.333333 -0.000000 -0.000000    0.00308642   7 t-inv T
  0.333333 -0.333333 -0.000000    0.00308642   7 t-inv T
 -0.000000  0.333333  0.000000    0.00308642   7 t-inv T
 -0.388889 -0.000000 -0.000000    0.00308642   8 t-inv T
  0.388889 -0.388889 -0.000000    0.00308642   8 t-inv T
 -0.000000  0.388889  0.000000    0.00308642   8 t-inv T
 -0.444444 -0.000000 -0.000000    0.00308642   9 t-inv T
  0.444444 -0.444444 -0.000000    0.00308642   9 t-inv T
 -0.000000  0.444444  0.000000    0.00308642   9 t-inv T
 -0.111111 -0.055556 -0.000000    0.00308642  12 t-inv T
  0.111111 -0.166667 -0.000000    0.00308642  12 t-inv T
 -0.055556  0.166667  0.000000    0.00308642  12 t-inv T
  0.166667 -0.111111 -0.000000    0.00308642  12 t-inv T
  0.055556  0.111111  0.000000    0.00308642  12 t-inv T
 -0.166667  0.055556 -0.000000    0.00308642  12 t-inv T
 -0.166667 -0.055556 -0.000000    0.00308642  13 t-inv T
  0.166667 -0.222222 -0.000000    0.00308642  13 t-inv T
 -0.055556  0.222222  0.000000    0.00308642  13 t-inv T
  0.222222 -0.166667 -0.000000    0.00308642  13 t-inv T
  0.055556  0.166667  0.000000    0.00308642  13 t-inv T
 -0.222222  0.055556 -0.000000    0.00308642  13 t-inv T
 -0.222222 -0.055556 -0.000000    0.00308642  14 t-inv T
  0.222222 -0.277778 -0.000000    0.00308642  14 t-inv T
 -0.055556  0.277778  0.000000    0.00308642  14 t-inv T
  0.277778 -0.222222 -0.000000    0.00308642  14 t-inv T
  0.055556  0.222222  0.000000    0.00308642  14 t-inv T
 -0.277778  0.055556 -0.000000    0.00308642  14 t-inv T
 -0.277778 -0.055556 -0.000000    0.00308642  15 t-inv T
  0.277778 -0.333333 -0.000000    0.00308642  15 t-inv T
 -0.055556  0.333333  0.000000    0.00308642  15 t-inv T
  0.333333 -0.277778 -0.000000    0.00308642  15 t-inv T
  0.055556  0.277778  0.000000    0.00308642  15 t-inv T
 -0.333333  0.055556 -0.000000    0.00308642  15 t-inv T
 -0.333333 -0.055556 -0.000000    0.00308642  16 t-inv T
  0.333333 -0.388889 -0.000000    0.00308642  16 t-inv T
 -0.055556  0.388889  0.000000    0.00308642  16 t-inv T
  0.388889 -0.333333 -0.000000    0.00308642  16 t-inv T
  0.055556  0.333333  0.000000    0.00308642  16 t-inv T
 -0.388889  0.055556 -0.000000    0.00308642  16 t-inv T
 -0.388889 -0.055556 -0.000000    0.00308642  17 t-inv T
  0.388889 -0.444444 -0.000000    0.00308642  17 t-inv T
 -0.055556  0.444444  0.000000    0.00308642  17 t-inv T
  0.444444 -0.388889 -0.000000    0.00308642  17 t-inv T
  0.055556  0.388889  0.000000    0.00308642  17 t-inv T
 -0.444444  0.055556 -0.000000    0.00308642  17 t-inv T
 -0.444444 -0.055556 -0.000000    0.00308642  18 t-inv T
  0.444444 -0.500000 -0.000000    0.00308642  18 t-inv T
 -0.055556  0.500000  0.000000    0.00308642  18 t-inv T
  0.500000 -0.444444 -0.000000    0.00308642  18 t-inv T
  0.055556  0.444444  0.000000    0.00308642  18 t-inv T
 -0.500000  0.055556 -0.000000    0.00308642  18 t-inv T
 -0.166667 -0.111111 -0.000000    0.00308642  20 t-inv T
  0.166667 -0.277778 -0.000000    0.00308642  20 t-inv T
 -0.111111  0.277778  0.000000    0.00308642  20 t-inv T
  0.277778 -0.166667 -0.000000    0.00308642  20 t-inv T
  0.111111  0.166667  0.000000    0.00308642  20 t-inv T
 -0.277778  0.111111 -0.000000    0.00308642  20 t-inv T
 -0.222222 -0.111111 -0.000000    0.00308642  21 t-inv T
  0.222222 -0.333333 -0.000000    0.00308642  21 t-inv T
 -0.111111  0.333333  0.000000    0.00308642  21 t-inv T
  0.333333 -0.222222 -0.000000    0.00308642  21 t-inv T
  0.111111  0.222222  0.000000    0.00308642  21 t-inv T
 -0.333333  0.111111 -0.000000    0.00308642  21 t-inv T
 -0.277778 -0.111111 -0.000000    0.00308642  22 t-inv T
  0.277778 -0.388889 -0.000000    0.00308642  22 t-inv T
 -0.111111  0.388889  0.000000    0.00308642  22 t-inv T
  0.388889 -0.277778 -0.000000    0.00308642  22 t-inv T
  0.111111  0.277778  0.000000    0.00308642  22 t-inv T
 -0.388889  0.111111 -0.000000    0.00308642  22 t-inv T
 -0.333333 -0.111111 -0.000000    0.00308642  23 t-inv T
  0.333333 -0.444444 -0.000000    0.00308642  23 t-inv T
 -0.111111  0.444444  0.000000    0.00308642  23 t-inv T
  0.444444 -0.333333 -0.000000    0.00308642  23 t-inv T
  0.111111  0.333333  0.000000    0.00308642  23 t-inv T
 -0.444444  0.111111 -0.000000    0.00308642  23 t-inv T
 -0.388889 -0.111111 -0.000000    0.00308642  24 t-inv T
  0.388889 -0.500000 -0.000000    0.00308642  24 t-inv T
 -0.111111  0.500000  0.000000    0.00308642  24 t-inv T
  0.500000 -0.388889 -0.000000    0.00308642  24 t-inv T
  0.111111  0.388889  0.000000    0.00308642  24 t-inv T
 -0.500000  0.111111 -0.000000    0.00308642  24 t-inv T
 -0.222222 -0.166667 -0.000000    0.00308642  27 t-inv T
  0.222222 -0.388889 -0.000000    0.00308642  27 t-inv T
 -0.166667  0.388889  0.000000    0.00308642  27 t-inv T
  0.388889 -0.222222 -0.000000    0.00308642  27 t-inv T
  0.166667  0.222222  0.000000    0.00308642  27 t-inv T
 -0.388889  0.166667 -0.000000    0.00308642  27 t-inv T
 -0.277778 -0.166667 -0.000000    0.00308642  28 t-inv T
  0.277778 -0.444444 -0.000000    0.00308642  28 t-inv T
 -0.166667  0.444444  0.000000    0.00308642  28 t-inv T
  0.444444 -0.277778 -0.000000    0.00308642  28 t-inv T
  0.166667  0.277778  0.000000    0.00308642  28 t-inv T
 -0.444444  0.166667 -0.000000    0.00308642  28 t-inv T
 -0.333333 -0.166667 -0.000000    0.00308642  29 t-inv T
  0.333333 -0.500000 -0.000000    0.00308642  29 t-inv T
 -0.166667  0.500000  0.000000    0.00308642  29 t-inv T
  0.500000 -0.333333 -0.000000    0.00308642  29 t-inv T
  0.166667  0.333333  0.000000    0.00308642  29 t-inv T
 -0.500000  0.166667 -0.000000    0.00308642  29 t-inv T
 -0.388889 -0.166667 -0.000000    0.00308642  30 t-inv T
  0.388889 -0.555556 -0.000000    0.00308642  30 t-inv T
 -0.166667  0.555556  0.000000    0.00308642  30 t-inv T
  0.555556 -0.388889 -0.000000    0.00308642  30 t-inv T
  0.166667  0.388889  0.000000    0.00308642  30 t-inv T
 -0.555556  0.166667 -0.000000    0.00308642  30 t-inv T
 -0.277778 -0.222222 -0.000000    0.00308642  32 t-inv T
  0.277778 -0.500000 -0.000000    0.00308642  32 t-inv T
 -0.222222  0.500000  0.000000    0.00308642  32 t-inv T
  0.500000 -0.277778 -0.000000    0.00308642  32 t-inv T
  0.222222  0.277778  0.000000    0.00308642  32 t-inv T
 -0.500000  0.222222 -0.000000    0.00308642  32 t-inv T
 -0.333333 -0.222222 -0.000000    0.00308642  33 t-inv T
  0.333333 -0.555556 -0.000000    0.00308642  33 t-inv T
 -0.222222  0.555556  0.000000    0.00308642  33 t-inv T
  0.555556 -0.333333 -0.000000    0.00308642  33 t-inv T
  0.222222  0.333333  0.000000    0.00308642  33 t-inv T
 -0.555556  0.222222 -0.000000    0.00308642  33 t-inv T
 -0.333333 -0.277778 -0.000000    0.00308642  36 t-inv T
  0.333333 -0.611111 -0.000000    0.00308642  36 t-inv T
 -0.277778  0.611111  0.000000    0.00308642  36 t-inv T
  0.611111 -0.333333 -0.000000    0.00308642  36 t-inv T
  0.277778  0.333333  0.000000    0.00308642  36 t-inv T
 -0.611111  0.277778 -0.000000    0.00308642  36 t-inv T


--------------------------------------------------------------------------------------------------------




 Dimension of arrays:
   k-points           NKPTS =     37   k-points in BZ     NKDIM =     37   number of bands    NBANDS=     84
   number of dos      NEDOS =    301   number of ions     NIONS =     15
   non local maximal  LDIM  =     11   non local SUM 2l+1 LMDIM =     41
   total plane-waves  NPLWV = 184320
   max r-space proj   IRMAX =      1   max aug-charges    IRDMAX=  19872
   dimension x,y,z NGX =    24 NGY =   24 NGZ =  320
   dimension x,y,z NGXF=    48 NGYF=   48 NGZF=  640
   support grid    NGXF=    48 NGYF=   48 NGZF=  640
   ions per type =               5  10
 NGX,Y,Z   is equivalent  to a cutoff of  11.25, 11.25, 10.64 a.u.
 NGXF,Y,Z  is equivalent  to a cutoff of  22.49, 22.49, 21.28 a.u.


 I would recommend the setting:
   dimension x,y,z NGX =    21 NGY =   21 NGZ =  303
 SYSTEM =  unknown system                          
 POSCAR =  Mo Te                                   

 Startparameter for this run:
   NWRITE =      2    write-flag & timer
   PREC   = accura    normal or accurate (medium, high low for compatibility)
   ISTART =      0    job   : 0-new  1-cont  2-samecut
   ICHARG =      2    charge: 1-file 2-atom 10-const
   ISPIN  =      1    spin polarized calculation?
   LNONCOLLINEAR =      F non collinear calculations
   LSORBIT =      F    spin-orbit coupling
   INIWAV =      1    electr: 0-lowe 1-rand  2-diag
   LASPH  =      F    aspherical Exc in radial PAW
   METAGGA=      F    non-selfconsistent MetaGGA calc.

 Electronic Relaxation 1
   ENCUT  =  344.9 eV  25.35 Ry    5.03 a.u.   5.37  5.37 75.72*2*pi/ulx,y,z
   ENINI  =  344.9     initial cutoff
   ENAUG  =  964.7 eV  augmentation charge cutoff
   NELM   =     60;   NELMIN=  5; NELMDL= -5     # of ELM steps 
   EDIFF  = 0.1E-07   stopping-criterion for ELM
   LREAL  =      F    real-space projection
   NLSPLINE    = F    spline interpolate recip. space projectors
   LCOMPAT=      F    compatible to vasp.4.4
   GGA_COMPAT  = T    GGA compatible to vasp.4.4-vasp.4.6
   LMAXPAW     = -100 max onsite density
   LMAXMIX     =    2 max onsite mixed and CHGCAR
   VOSKOWN=      0    Vosko Wilk Nusair interpolation
   ROPT   =    0.00000   0.00000
 Ionic relaxation
   EDIFFG = 0.1E-06   stopping-criterion for IOM
   NSW    =      0    number of steps for IOM
   NBLOCK =      1;   KBLOCK =      1    inner block; outer block 
   IBRION =     -1    ionic relax: 0-MD 1-quasi-New 2-CG
   NFREE  =      0    steps in history (QN), initial steepest desc. (CG)
   ISIF   =      2    stress and relaxation
   IWAVPR =     10    prediction:  0-non 1-charg 2-wave 3-comb
   ISYM   =      2    0-nonsym 1-usesym 2-fastsym
   LCORR  =      T    Harris-Foulkes like correction to forces

   POTIM  = 0.5000    time-step for ionic-motion
   TEIN   =    0.0    initial temperature
   TEBEG  =    0.0;   TEEND  =   0.0 temperature during run
   SMASS  =  -3.00    Nose mass-parameter (am)
   estimated Nose-frequenzy (Omega)   =  0.10E-29 period in steps =****** mass=  -0.288E-27a.u.
   SCALEE = 1.0000    scale energy and forces
   NPACO  =    256;   APACO  = 16.0  distance and # of slots for P.C.
   PSTRESS=    0.0 pullay stress

  Mass of Ions in am
   POMASS =  95.94127.60
  Ionic Valenz
   ZVAL   =  14.00  6.00
  Atomic Wigner-Seitz radii
   RWIGS  =  -1.00 -1.00
  virtual crystal weights 
   VCA    =   1.00  1.00
   NELECT =     130.0000    total number of electrons
   NUPDOWN=      -1.0000    fix difference up-down

 DOS related values:
   EMIN   =  10.00;   EMAX   =-10.00  energy-range for DOS
   EFERMI =   0.00
   ISMEAR =    -5;   SIGMA  =   0.01  broadening in eV -4-tet -1-fermi 0-gaus

 Electronic relaxation 2 (details)
   IALGO  =     38    algorithm
   LDIAG  =      T    sub-space diagonalisation (order eigenvalues)
   LSUBROT=      F    optimize rotation matrix (better conditioning)
   TURBO    =      0    0=normal 1=particle mesh
   IRESTART =      0    0=no restart 2=restart with 2 vectors
   NREBOOT  =      0    no. of reboots
   NMIN     =      0    reboot dimension
   EREF     =   0.00    reference energy to select bands
   IMIX   =      4    mixing-type and parameters
     AMIX     =   0.40;   BMIX     =  1.00
     AMIX_MAG =   1.60;   BMIX_MAG =  1.00
     AMIN     =   0.10
     WC   =   100.;   INIMIX=   1;  MIXPRE=   1;  MAXMIX= -45

 Intra band minimization:
   WEIMIN = 0.0000     energy-eigenvalue tresh-hold
   EBREAK =  0.30E-10  absolut break condition
   DEPER  =   0.30     relativ break condition  

   TIME   =   0.40     timestep for ELM

  volume/ion in A,a.u.               =      36.33       245.15
  Fermi-wavevector in a.u.,A,eV,Ry     =   1.015351  1.918735 14.026762  1.030938
  Thomas-Fermi vector in A             =   2.148632
 
 Write flags
   LWAVE  =      T    write WAVECAR
   LCHARG =      T    write CHGCAR
   LVTOT  =      F    write LOCPOT, total local potential
   LVHAR  =      F    write LOCPOT, Hartree potential only
   LELF   =      F    write electronic localiz. function (ELF)
   LORBIT =      0    0 simple, 1 ext, 2 COOP (PROOUT)


 Dipole corrections
   LMONO  =      F    monopole corrections only (constant potential shift)
   LDIPOL =      F    correct potential (dipole corrections)
   IDIPOL =      0    1-x, 2-y, 3-z, 4-all directions 
   EPSILON=  1.0000000 bulk dielectric constant

 Exchange correlation treatment:
   GGA     =    PE    GGA type
   LEXCH   =     8    internal setting for exchange type
   VOSKOWN=      0    Vosko Wilk Nusair interpolation
   LHFCALC =     F    Hartree Fock is set to
   LHFONE  =     F    Hartree Fock one center treatment
   AEXX    =    0.0000 exact exchange contribution

 Linear response parameters
   LEPSILON=     T    determine dielectric tensor
   LRPA    =     F    only Hartree local field effects (RPA)
   LNABLA  =     F    use nabla operator in PAW spheres
   LVEL    =     F    velocity operator in full k-point grid
   LINTERFAST=   F  fast interpolation
   KINTER  =     0    interpolate to denser k-point grid
   CSHIFT  =0.1000    complex shift for real part using Kramers Kronig
   OMEGAMAX=  -1.0    maximum frequency
   DEG_THRESHOLD= 0.2000000E-02 threshold for treating states as degnerate
   RTIME   =    0.100 relaxation time in fs

 Orbital magnetization related:
   ORBITALMAG=     F  switch on orbital magnetization
   LCHIMAG   =     F  perturbation theory with respect to B field
   DQ        =  0.001000  dq finite difference perturbation B field



--------------------------------------------------------------------------------------------------------


 Static calculation
 charge density and potential will be updated during run
 non-spin polarized calculation
 Variant of blocked Davidson
 Davidson routine will perform the subspace rotation
 perform sub-space diagonalisation
    after iterative eigenvector-optimisation
 modified Broyden-mixing scheme, WC =      100.0
 initial mixing is a Kerker type mixing with AMIX =  0.4000 and BMIX =      1.0000
 Hartree-type preconditioning will be used
 using additional bands           19
 reciprocal scheme for non local part
 use partial core corrections
 calculate Harris-corrections to forces 
   (improved forces if not selfconsistent)
 use gradient corrections 
 use of overlap-Matrix (Vanderbilt PP)
 Fermi weights with tetrahedron method with Bloechl corrections


--------------------------------------------------------------------------------------------------------


  energy-cutoff  :      344.91
  volume of cell :      544.90
      direct lattice vectors                 reciprocal lattice vectors
     3.547392312  0.000000000  0.000000000     0.281897211  0.162753431  0.000000000
    -1.773696156  3.072131859  0.000000000     0.000000000  0.325506862  0.000000000
     0.000000000  0.000000000 50.000000000     0.000000000  0.000000000  0.020000000

  length of vectors
     3.547392312  3.547392312 50.000000000     0.325506862  0.325506862  0.020000000


 
 k-points in units of 2pi/SCALE and weight: KPOINTS created by Atomic Simulation Env
   0.00000000  0.00000000  0.00000000       0.003
   0.01566096  0.00904186  0.00000000       0.019
   0.03132191  0.01808371  0.00000000       0.019
   0.04698287  0.02712557  0.00000000       0.019
   0.06264382  0.03616743  0.00000000       0.019
   0.07830478  0.04520929  0.00000000       0.019
   0.09396574  0.05425114  0.00000000       0.019
   0.10962669  0.06329300  0.00000000       0.019
   0.12528765  0.07233486  0.00000000       0.019
   0.14094861  0.08137672  0.00000000       0.009
   0.01566096  0.02712557  0.00000000       0.019
   0.03132191  0.03616743  0.00000000       0.037
   0.04698287  0.04520929  0.00000000       0.037
   0.06264382  0.05425114  0.00000000       0.037
   0.07830478  0.06329300  0.00000000       0.037
   0.09396574  0.07233486  0.00000000       0.037
   0.10962669  0.08137672  0.00000000       0.037
   0.12528765  0.09041857  0.00000000       0.037
   0.03132191  0.05425114  0.00000000       0.019
   0.04698287  0.06329300  0.00000000       0.037
   0.06264382  0.07233486  0.00000000       0.037
   0.07830478  0.08137672  0.00000000       0.037
   0.09396574  0.09041857  0.00000000       0.037
   0.10962669  0.09946043  0.00000000       0.037
   0.12528765  0.10850229  0.00000000       0.019
   0.04698287  0.08137672  0.00000000       0.019
   0.06264382  0.09041857  0.00000000       0.037
   0.07830478  0.09946043  0.00000000       0.037
   0.09396574  0.10850229  0.00000000       0.037
   0.10962669  0.11754414  0.00000000       0.037
   0.06264382  0.10850229  0.00000000       0.019
   0.07830478  0.11754414  0.00000000       0.037
   0.09396574  0.12658600  0.00000000       0.037
   0.10962669  0.13562786  0.00000000       0.019
   0.07830478  0.13562786  0.00000000       0.019
   0.09396574  0.14466972  0.00000000       0.037
   0.09396574  0.16275343  0.00000000       0.006
 
 k-points in reciprocal lattice and weights: KPOINTS created by Atomic Simulation Env
   0.00000000  0.00000000  0.00000000       0.003
   0.05555556  0.00000000  0.00000000       0.019
   0.11111111  0.00000000  0.00000000       0.019
   0.16666667  0.00000000  0.00000000       0.019
   0.22222222  0.00000000  0.00000000       0.019
   0.27777778  0.00000000  0.00000000       0.019
   0.33333333  0.00000000  0.00000000       0.019
   0.38888889  0.00000000  0.00000000       0.019
   0.44444444  0.00000000  0.00000000       0.019
   0.50000000  0.00000000  0.00000000       0.009
   0.05555556  0.05555556  0.00000000       0.019
   0.11111111  0.05555556  0.00000000       0.037
   0.16666667  0.05555556  0.00000000       0.037
   0.22222222  0.05555556  0.00000000       0.037
   0.27777778  0.05555556  0.00000000       0.037
   0.33333333  0.05555556  0.00000000       0.037
   0.38888889  0.05555556  0.00000000       0.037
   0.44444444  0.05555556  0.00000000       0.037
   0.11111111  0.11111111  0.00000000       0.019
   0.16666667  0.11111111  0.00000000       0.037
   0.22222222  0.11111111  0.00000000       0.037
   0.27777778  0.11111111  0.00000000       0.037
   0.33333333  0.11111111  0.00000000       0.037
   0.38888889  0.11111111  0.00000000       0.037
   0.44444444  0.11111111  0.00000000       0.019
   0.16666667  0.16666667  0.00000000       0.019
   0.22222222  0.16666667  0.00000000       0.037
   0.27777778  0.16666667  0.00000000       0.037
   0.33333333  0.16666667  0.00000000       0.037
   0.38888889  0.16666667  0.00000000       0.037
   0.22222222  0.22222222  0.00000000       0.019
   0.27777778  0.22222222  0.00000000       0.037
   0.33333333  0.22222222  0.00000000       0.037
   0.38888889  0.22222222  0.00000000       0.019
   0.27777778  0.27777778  0.00000000       0.019
   0.33333333  0.27777778  0.00000000       0.037
   0.33333333  0.33333333  0.00000000       0.006
 
 position of ions in fractional coordinates (direct lattice) 
   0.16666667  0.33333333  0.22080000
   0.83333333  0.66666667  0.36040000
   0.16666667  0.33333333  0.50000000
   0.83333333  0.66666667  0.63960000
   0.16666667  0.33333333  0.77920000
   0.83333333  0.66666667  0.25690200
   0.83333333  0.66666667  0.18469800
   0.16666667  0.33333333  0.39650200
   0.16666667  0.33333333  0.32429800
   0.83333333  0.66666667  0.53610200
   0.83333333  0.66666667  0.46389800
   0.16666667  0.33333333  0.67570200
   0.16666667  0.33333333  0.60349800
   0.83333333  0.66666667  0.81530200
   0.83333333  0.66666667  0.74309800
 
 position of ions in cartesian coordinates  (Angst):
  -0.00000000  1.02404395 11.04000000
   1.77369616  2.04808791 18.02000000
  -0.00000000  1.02404395 25.00000000
   1.77369616  2.04808791 31.98000000
  -0.00000000  1.02404395 38.96000000
   1.77369616  2.04808791 12.84510000
   1.77369616  2.04808791  9.23490000
  -0.00000000  1.02404395 19.82510000
  -0.00000000  1.02404395 16.21490000
   1.77369616  2.04808791 26.80510000
   1.77369616  2.04808791 23.19490000
  -0.00000000  1.02404395 33.78510000
  -0.00000000  1.02404395 30.17490000
   1.77369616  2.04808791 40.76510000
   1.77369616  2.04808791 37.15490000
 


--------------------------------------------------------------------------------------------------------


 k-point  1 :   0.0000 0.0000 0.0000  plane waves:    8059
 k-point  2 :   0.0556 0.0000 0.0000  plane waves:    8047
 k-point  3 :   0.1111 0.0000 0.0000  plane waves:    7995
 k-point  4 :   0.1667 0.0000 0.0000  plane waves:    7981
 k-point  5 :   0.2222 0.0000 0.0000  plane waves:    7967
 k-point  6 :   0.2778 0.0000 0.0000  plane waves:    7949
 k-point  7 :   0.3333 0.0000 0.0000  plane waves:    7895
 k-point  8 :   0.3889 0.0000 0.0000  plane waves:    7892
 k-point  9 :   0.4444 0.0000 0.0000  plane waves:    7900
 k-point 10 :   0.5000 0.0000 0.0000  plane waves:    7892
 k-point 11 :   0.0556 0.0556 0.0000  plane waves:    7977
 k-point 12 :   0.1111 0.0556 0.0000  plane waves:    7993
 k-point 13 :   0.1667 0.0556 0.0000  plane waves:    7982
 k-point 14 :   0.2222 0.0556 0.0000  plane waves:    7962
 k-point 15 :   0.2778 0.0556 0.0000  plane waves:    7921
 k-point 16 :   0.3333 0.0556 0.0000  plane waves:    7897
 k-point 17 :   0.3889 0.0556 0.0000  plane waves:    7896
 k-point 18 :   0.4444 0.0556 0.0000  plane waves:    7906
 k-point 19 :   0.1111 0.1111 0.0000  plane waves:    7975
 k-point 20 :   0.1667 0.1111 0.0000  plane waves:    7970
 k-point 21 :   0.2222 0.1111 0.0000  plane waves:    7936
 k-point 22 :   0.2778 0.1111 0.0000  plane waves:    7914
 k-point 23 :   0.3333 0.1111 0.0000  plane waves:    7914
 k-point 24 :   0.3889 0.1111 0.0000  plane waves:    7888
 k-point 25 :   0.4444 0.1111 0.0000  plane waves:    7900
 k-point 26 :   0.1667 0.1667 0.0000  plane waves:    7935
 k-point 27 :   0.2222 0.1667 0.0000  plane waves:    7910
 k-point 28 :   0.2778 0.1667 0.0000  plane waves:    7913
 k-point 29 :   0.3333 0.1667 0.0000  plane waves:    7908
 k-point 30 :   0.3889 0.1667 0.0000  plane waves:    7908
 k-point 31 :   0.2222 0.2222 0.0000  plane waves:    7893
 k-point 32 :   0.2778 0.2222 0.0000  plane waves:    7891
 k-point 33 :   0.3333 0.2222 0.0000  plane waves:    7911
 k-point 34 :   0.3889 0.2222 0.0000  plane waves:    7894
 k-point 35 :   0.2778 0.2778 0.0000  plane waves:    7895
 k-point 36 :   0.3333 0.2778 0.0000  plane waves:    7895
 k-point 37 :   0.3333 0.3333 0.0000  plane waves:    7902

 maximum and minimum number of plane-waves per node :      8059     7888

 maximum number of plane-waves:      8059
 maximum index in each direction: 
   IXMAX=    5   IYMAX=    5   IZMAX=   75
   IXMIN=   -5   IYMIN=   -5   IZMIN=  -75

 NGX is ok and might be reduce to  22
 NGY is ok and might be reduce to  22
 NGZ is ok and might be reduce to 302

 serial   3D FFT for wavefunctions
 parallel 3D FFT for charge:
    minimum data exchange during FFTs selected (reduces bandwidth)


 total amount of memory used by VASP on root node   257458. kBytes
========================================================================

   base      :      30000. kBytes
   nonl-proj :     197664. kBytes
   fftplans  :       2737. kBytes
   grid      :      10830. kBytes
   one-center:       1210. kBytes
   wavefun   :      15017. kBytes
 
     INWAV:  cpu time    0.0000: real time    0.0000
 Broyden mixing: mesh for mixing (old mesh)
   NGX = 11   NGY = 11   NGZ =151
  (NGX  = 48   NGY  = 48   NGZ  =640)
  gives a total of  18271 points

 initial charge density was supplied:
 charge density of overlapping atoms calculated
 number of electron     130.0000000 magnetization 
 keeping initial charge density in first step


--------------------------------------------------------------------------------------------------------


 Maximum index for augmentation-charges         1088 (set IRDMAX)


--------------------------------------------------------------------------------------------------------


 First call to EWALD:  gamma=   0.217
 Maximum number of real-space cells 6x 6x 1
 Maximum number of reciprocal cells 1x 1x14

 FEWALD executed in parallel
    FEWALD:  cpu time    0.0010: real time    0.0013


----------------------------------------- Iteration    1(   1)  ---------------------------------------


    POTLOK:  cpu time    0.0460: real time    0.0470
    SETDIJ:  cpu time    0.0100: real time    0.0098
     EDDAV:  cpu time   10.8953: real time   10.9114
 BZINTS: Fermi energy: 16.050044;130.000000 electrons
         Band energy:-407.740158;  BLOECHL correction: -0.277914
       DOS:  cpu time    0.0260: real time    0.0265
    --------------------------------------------
      LOOP:  cpu time   10.9783: real time   10.9969

 eigenvalue-minimisations  :  7644
 total energy-change (2. order) : 0.9110115E+03  (-0.5388097E+04)
 number of electron     130.0000000 magnetization 
 augmentation part      130.0000000 magnetization 

 Free energy of the ion-electron system (eV)
  ---------------------------------------------------
  alpha Z        PSCENC =       172.53402140
  Ewald energy   TEWEN  =     49109.81545835
  -Hartree energ DENC   =    -59964.25936453
  -exchange      EXHF   =         0.00000000
  -V(xc)+E(xc)   XCENC  =        53.46815849
  PAW double counting   =      9621.19663635    -9213.74525142
  entropy T*S    EENTRO =         0.00000000
  eigenvalues    EBANDS =      -407.74015764
  atomic energy  EATOM  =     11539.74201362
  Solvation  Ediel_sol  =         0.00000000
  ---------------------------------------------------
  free energy    TOTEN  =       911.01151461 eV

  energy without entropy =      911.01151461  energy(sigma->0) =      911.01151461


--------------------------------------------------------------------------------------------------------




----------------------------------------- Iteration    1(   2)  ---------------------------------------


     EDDAV:  cpu time   13.2660: real time   13.2840
 BZINTS: Fermi energy:  7.171299;130.000000 electrons
         Band energy:***********;  BLOECHL correction: -0.008269
       DOS:  cpu time    0.0220: real time    0.0225
    --------------------------------------------
      LOOP:  cpu time   13.2900: real time   13.3089

 eigenvalue-minimisations  :  9632
 total energy-change (2. order) :-0.9344569E+03  (-0.9193567E+03)
 number of electron     130.0000000 magnetization 
 augmentation part      130.0000000 magnetization 

 Free energy of the ion-electron system (eV)
  ---------------------------------------------------
  alpha Z        PSCENC =       172.53402140
  Ewald energy   TEWEN  =     49109.81545835
  -Hartree energ DENC   =    -59964.25936453
  -exchange      EXHF   =         0.00000000
  -V(xc)+E(xc)   XCENC  =        53.46815849
  PAW double counting   =      9621.19663635    -9213.74525142
  entropy T*S    EENTRO =         0.00000000
  eigenvalues    EBANDS =     -1342.19709329
  atomic energy  EATOM  =     11539.74201362
  Solvation  Ediel_sol  =         0.00000000
  ---------------------------------------------------
  free energy    TOTEN  =       -23.44542104 eV

  energy without entropy =      -23.44542104  energy(sigma->0) =      -23.44542104


--------------------------------------------------------------------------------------------------------




----------------------------------------- Iteration    1(   3)  ---------------------------------------


     EDDAV:  cpu time   12.4931: real time   12.5116
 BZINTS: Fermi energy:  5.200788;130.000000 electrons
         Band energy:***********;  BLOECHL correction:  0.000000
       DOS:  cpu time    0.0040: real time    0.0050
    --------------------------------------------
      LOOP:  cpu time   12.4971: real time   12.5197

 eigenvalue-minimisations  :  8680
 total energy-change (2. order) :-0.7754154E+02  (-0.7674522E+02)
 number of electron     130.0000000 magnetization 
 augmentation part      130.0000000 magnetization 

 Free energy of the ion-electron system (eV)
  ---------------------------------------------------
  alpha Z        PSCENC =       172.53402140
  Ewald energy   TEWEN  =     49109.81545835
  -Hartree energ DENC   =    -59964.25936453
  -exchange      EXHF   =         0.00000000
  -V(xc)+E(xc)   XCENC  =        53.46815849
  PAW double counting   =      9621.19663635    -9213.74525142
  entropy T*S    EENTRO =         0.00000000
  eigenvalues    EBANDS =     -1419.73863062
  atomic energy  EATOM  =     11539.74201362
  Solvation  Ediel_sol  =         0.00000000
  ---------------------------------------------------
  free energy    TOTEN  =      -100.98695837 eV

  energy without entropy =     -100.98695837  energy(sigma->0) =     -100.98695837


--------------------------------------------------------------------------------------------------------




----------------------------------------- Iteration    1(   4)  ---------------------------------------


     EDDAV:  cpu time   15.1067: real time   15.1241
 BZINTS: Fermi energy:  5.111918;130.000000 electrons
         Band energy:***********;  BLOECHL correction:  0.000000
       DOS:  cpu time    0.0050: real time    0.0049
    --------------------------------------------
      LOOP:  cpu time   15.1127: real time   15.1325

 eigenvalue-minimisations  : 10584
 total energy-change (2. order) :-0.4516178E+01  (-0.4487407E+01)
 number of electron     130.0000000 magnetization 
 augmentation part      130.0000000 magnetization 

 Free energy of the ion-electron system (eV)
  ---------------------------------------------------
  alpha Z        PSCENC =       172.53402140
  Ewald energy   TEWEN  =     49109.81545835
  -Hartree energ DENC   =    -59964.25936453
  -exchange      EXHF   =         0.00000000
  -V(xc)+E(xc)   XCENC  =        53.46815849
  PAW double counting   =      9621.19663635    -9213.74525142
  entropy T*S    EENTRO =         0.00000000
  eigenvalues    EBANDS =     -1424.25480898
  atomic energy  EATOM  =     11539.74201362
  Solvation  Ediel_sol  =         0.00000000
  ---------------------------------------------------
  free energy    TOTEN  =      -105.50313673 eV

  energy without entropy =     -105.50313673  energy(sigma->0) =     -105.50313673


--------------------------------------------------------------------------------------------------------




----------------------------------------- Iteration    1(   5)  ---------------------------------------


     EDDAV:  cpu time   13.7459: real time   13.7617
 BZINTS: Fermi energy:  5.150786;130.000000 electrons
         Band energy:***********;  BLOECHL correction:  0.000000
       DOS:  cpu time    0.0050: real time    0.0054
    CHARGE:  cpu time    0.5339: real time    0.5335
    MIXING:  cpu time    0.0010: real time    0.0017
    --------------------------------------------
      LOOP:  cpu time   14.2868: real time   14.3071

 eigenvalue-minimisations  :  9408
 total energy-change (2. order) :-0.1586661E+00  (-0.1582361E+00)
 number of electron     130.0000009 magnetization 
 augmentation part      -14.4478616 magnetization 

 Broyden mixing:
  rms(total) = 0.19710E+01    rms(broyden)= 0.19701E+01
  rms(prec ) = 0.20249E+01
  weight for this iteration     100.00

 Free energy of the ion-electron system (eV)
  ---------------------------------------------------
  alpha Z        PSCENC =       172.53402140
  Ewald energy   TEWEN  =     49109.81545835
  -Hartree energ DENC   =    -59964.25936453
  -exchange      EXHF   =         0.00000000
  -V(xc)+E(xc)   XCENC  =        53.46815849
  PAW double counting   =      9621.19663635    -9213.74525142
  entropy T*S    EENTRO =         0.00000000
  eigenvalues    EBANDS =     -1424.41347503
  atomic energy  EATOM  =     11539.74201362
  Solvation  Ediel_sol  =         0.00000000
  ---------------------------------------------------
  free energy    TOTEN  =      -105.66180279 eV

  energy without entropy =     -105.66180279  energy(sigma->0) =     -105.66180279


--------------------------------------------------------------------------------------------------------




----------------------------------------- Iteration    1(   6)  ---------------------------------------


    POTLOK:  cpu time    0.0440: real time    0.0436
    SETDIJ:  cpu time    0.0090: real time    0.0098
     EDDAV:  cpu time   15.0057: real time   15.0199
 BZINTS: Fermi energy:  3.550377;130.000000 electrons
         Band energy:***********;  BLOECHL correction: -0.008968
       DOS:  cpu time    0.0220: real time    0.0226
    CHARGE:  cpu time    0.5399: real time    0.5403
    MIXING:  cpu time    0.0020: real time    0.0017
    --------------------------------------------
      LOOP:  cpu time   15.6236: real time   15.6408

 eigenvalue-minimisations  : 11060
 total energy-change (2. order) : 0.5497326E+01  (-0.1205822E+02)
 number of electron     130.0000006 magnetization 
 augmentation part      -11.1213759 magnetization 

 Broyden mixing:
  rms(total) = 0.14058E+01    rms(broyden)= 0.14056E+01
  rms(prec ) = 0.14805E+01
  weight for this iteration     100.00

 eigenvalues of (default mixing * dielectric matrix)
  average eigenvalue GAMMA=   0.6163
  0.6163

 Free energy of the ion-electron system (eV)
  ---------------------------------------------------
  alpha Z        PSCENC =       172.53402140
  Ewald energy   TEWEN  =     49109.81545835
  -Hartree energ DENC   =    -59702.12974074
  -exchange      EXHF   =         0.00000000
  -V(xc)+E(xc)   XCENC  =        45.62468672
  PAW double counting   =      9047.15776439    -8645.73995432
  entropy T*S    EENTRO =         0.00000000
  eigenvalues    EBANDS =     -1667.16872592
  atomic energy  EATOM  =     11539.74201362
  Solvation  Ediel_sol  =         0.00000000
  ---------------------------------------------------
  free energy    TOTEN  =      -100.16447650 eV

  energy without entropy =     -100.16447650  energy(sigma->0) =     -100.16447650


--------------------------------------------------------------------------------------------------------




----------------------------------------- Iteration    1(   7)  ---------------------------------------


    POTLOK:  cpu time    0.0420: real time    0.0420
    SETDIJ:  cpu time    0.0090: real time    0.0098
     EDDAV:  cpu time   13.9619: real time   13.9750
 BZINTS: Fermi energy:  4.200208;130.000000 electrons
         Band energy:***********;  BLOECHL correction:  0.000000
       DOS:  cpu time    0.0050: real time    0.0050
    CHARGE:  cpu time    0.5379: real time    0.5379
    MIXING:  cpu time    0.0020: real time    0.0022
    --------------------------------------------
      LOOP:  cpu time   14.5588: real time   14.5747

 eigenvalue-minimisations  : 10248
 total energy-change (2. order) : 0.5769517E+01  (-0.4654047E+01)
 number of electron     130.0000008 magnetization 
 augmentation part      -12.8434278 magnetization 

 Broyden mixing:
  rms(total) = 0.59492E+00    rms(broyden)= 0.59475E+00
  rms(prec ) = 0.60276E+00
  weight for this iteration     100.00

 eigenvalues of (default mixing * dielectric matrix)
  average eigenvalue GAMMA=   1.5189
  2.5271  0.5106

 Free energy of the ion-electron system (eV)
  ---------------------------------------------------
  alpha Z        PSCENC =       172.53402140
  Ewald energy   TEWEN  =     49109.81545835
  -Hartree energ DENC   =    -59847.34476646
  -exchange      EXHF   =         0.00000000
  -V(xc)+E(xc)   XCENC  =        48.92504495
  PAW double counting   =      9381.67234731    -8976.84446503
  entropy T*S    EENTRO =         0.00000000
  eigenvalues    EBANDS =     -1522.89461329
  atomic energy  EATOM  =     11539.74201362
  Solvation  Ediel_sol  =         0.00000000
  ---------------------------------------------------
  free energy    TOTEN  =       -94.39495915 eV

  energy without entropy =      -94.39495915  energy(sigma->0) =      -94.39495915


--------------------------------------------------------------------------------------------------------




----------------------------------------- Iteration    1(   8)  ---------------------------------------


    POTLOK:  cpu time    0.0440: real time    0.0436
    SETDIJ:  cpu time    0.0090: real time    0.0099
     EDDAV:  cpu time   14.7838: real time   14.7991
 BZINTS: Fermi energy:  4.097567;130.000000 electrons
         Band energy:***********;  BLOECHL correction:  0.000000
       DOS:  cpu time    0.0040: real time    0.0045
    CHARGE:  cpu time    0.5329: real time    0.5332
    MIXING:  cpu time    0.0020: real time    0.0016
    --------------------------------------------
      LOOP:  cpu time   15.3767: real time   15.3951

 eigenvalue-minimisations  : 10472
 total energy-change (2. order) : 0.3657865E+00  (-0.4288742E+00)
 number of electron     130.0000007 magnetization 
 augmentation part      -12.5930348 magnetization 

 Broyden mixing:
  rms(total) = 0.96077E-01    rms(broyden)= 0.95985E-01
  rms(prec ) = 0.99470E-01
  weight for this iteration     100.00

 eigenvalues of (default mixing * dielectric matrix)
  average eigenvalue GAMMA=   1.3105
  0.5004  0.9797  2.4515

 Free energy of the ion-electron system (eV)
  ---------------------------------------------------
  alpha Z        PSCENC =       172.53402140
  Ewald energy   TEWEN  =     49109.81545835
  -Hartree energ DENC   =    -59824.42017866
  -exchange      EXHF   =         0.00000000
  -V(xc)+E(xc)   XCENC  =        47.67702713
  PAW double counting   =      9311.15235890    -8906.14219577
  entropy T*S    EENTRO =         0.00000000
  eigenvalues    EBANDS =     -1544.38767758
  atomic energy  EATOM  =     11539.74201362
  Solvation  Ediel_sol  =         0.00000000
  ---------------------------------------------------
  free energy    TOTEN  =       -94.02917261 eV

  energy without entropy =      -94.02917261  energy(sigma->0) =      -94.02917261


--------------------------------------------------------------------------------------------------------




----------------------------------------- Iteration    1(   9)  ---------------------------------------


    POTLOK:  cpu time    0.0420: real time    0.0435
    SETDIJ:  cpu time    0.0100: real time    0.0102
     EDDAV:  cpu time   12.4001: real time   12.8402
 BZINTS: Fermi energy:  4.094062;130.000000 electrons
         Band energy:***********;  BLOECHL correction:  0.000000
       DOS:  cpu time    0.0060: real time    0.0057
    CHARGE:  cpu time    0.5629: real time    0.5627
    MIXING:  cpu time    0.0010: real time    0.0017
    --------------------------------------------
      LOOP:  cpu time   13.0240: real time   13.4675

 eigenvalue-minimisations  :  8820
 total energy-change (2. order) : 0.3678188E-02  (-0.2817196E-01)
 number of electron     130.0000007 magnetization 
 augmentation part      -12.6193876 magnetization 

 Broyden mixing:
  rms(total) = 0.61719E-01    rms(broyden)= 0.61698E-01
  rms(prec ) = 0.63544E-01
  weight for this iteration     100.00

 eigenvalues of (default mixing * dielectric matrix)
  average eigenvalue GAMMA=   1.2264
  2.4658  1.2091  0.5059  0.7248

 Free energy of the ion-electron system (eV)
  ---------------------------------------------------
  alpha Z        PSCENC =       172.53402140
  Ewald energy   TEWEN  =     49109.81545835
  -Hartree energ DENC   =    -59825.17281902
  -exchange      EXHF   =         0.00000000
  -V(xc)+E(xc)   XCENC  =        47.86355633
  PAW double counting   =      9325.17840697    -8919.97109691
  entropy T*S    EENTRO =         0.00000000
  eigenvalues    EBANDS =     -1544.01503515
  atomic energy  EATOM  =     11539.74201362
  Solvation  Ediel_sol  =         0.00000000
  ---------------------------------------------------
  free energy    TOTEN  =       -94.02549442 eV

  energy without entropy =      -94.02549442  energy(sigma->0) =      -94.02549442


--------------------------------------------------------------------------------------------------------




----------------------------------------- Iteration    1(  10)  ---------------------------------------


    POTLOK:  cpu time    0.0440: real time    0.0444
    SETDIJ:  cpu time    0.0100: real time    0.0097
     EDDAV:  cpu time   13.8229: real time   13.8372
 BZINTS: Fermi energy:  4.105364;130.000000 electrons
         Band energy:***********;  BLOECHL correction:  0.000000
       DOS:  cpu time    0.0050: real time    0.0050
    CHARGE:  cpu time    0.5459: real time    0.5468
    MIXING:  cpu time    0.0020: real time    0.0020
    --------------------------------------------
      LOOP:  cpu time   14.4308: real time   14.4499

 eigenvalue-minimisations  :  9576
 total energy-change (2. order) : 0.7452515E-02  (-0.5357013E-02)
 number of electron     130.0000007 magnetization 
 augmentation part      -12.6477854 magnetization 

 Broyden mixing:
  rms(total) = 0.28547E-01    rms(broyden)= 0.28544E-01
  rms(prec ) = 0.29145E-01
  weight for this iteration     100.00

 eigenvalues of (default mixing * dielectric matrix)
  average eigenvalue GAMMA=   1.2526
  2.5619  1.6912  0.8691  0.5049  0.6360

 Free energy of the ion-electron system (eV)
  ---------------------------------------------------
  alpha Z        PSCENC =       172.53402140
  Ewald energy   TEWEN  =     49109.81545835
  -Hartree energ DENC   =    -59832.02744417
  -exchange      EXHF   =         0.00000000
  -V(xc)+E(xc)   XCENC  =        48.00374309
  PAW double counting   =      9338.10391019    -8932.80366419
  entropy T*S    EENTRO =         0.00000000
  eigenvalues    EBANDS =     -1537.38608019
  atomic energy  EATOM  =     11539.74201362
  Solvation  Ediel_sol  =         0.00000000
  ---------------------------------------------------
  free energy    TOTEN  =       -94.01804191 eV

  energy without entropy =      -94.01804191  energy(sigma->0) =      -94.01804191


--------------------------------------------------------------------------------------------------------




----------------------------------------- Iteration    1(  11)  ---------------------------------------


    POTLOK:  cpu time    0.0430: real time    0.0434
    SETDIJ:  cpu time    0.0090: real time    0.0097
     EDDAV:  cpu time   15.3487: real time   15.3625
 BZINTS: Fermi energy:  4.155452;130.000000 electrons
         Band energy:***********;  BLOECHL correction:  0.000000
       DOS:  cpu time    0.0040: real time    0.0044
    CHARGE:  cpu time    0.5249: real time    0.5245
    MIXING:  cpu time    0.0020: real time    0.0018
    --------------------------------------------
      LOOP:  cpu time   15.9326: real time   15.9494

 eigenvalue-minimisations  : 10836
 total energy-change (2. order) : 0.1067550E-02  (-0.1451714E-02)
 number of electron     130.0000007 magnetization 
 augmentation part      -12.6627535 magnetization 

 Broyden mixing:
  rms(total) = 0.12785E-01    rms(broyden)= 0.12781E-01
  rms(prec ) = 0.13337E-01
  weight for this iteration     100.00

 eigenvalues of (default mixing * dielectric matrix)
  average eigenvalue GAMMA=   1.2453
  2.5564  1.8346  1.0087  1.0087  0.5035  0.5600

 Free energy of the ion-electron system (eV)
  ---------------------------------------------------
  alpha Z        PSCENC =       172.53402140
  Ewald energy   TEWEN  =     49109.81545835
  -Hartree energ DENC   =    -59836.35877513
  -exchange      EXHF   =         0.00000000
  -V(xc)+E(xc)   XCENC  =        48.09584443
  PAW double counting   =      9345.21325854    -8939.88348232
  entropy T*S    EENTRO =         0.00000000
  eigenvalues    EBANDS =     -1533.17531324
  atomic energy  EATOM  =     11539.74201362
  Solvation  Ediel_sol  =         0.00000000
  ---------------------------------------------------
  free energy    TOTEN  =       -94.01697436 eV

  energy without entropy =      -94.01697436  energy(sigma->0) =      -94.01697436


--------------------------------------------------------------------------------------------------------




----------------------------------------- Iteration    1(  12)  ---------------------------------------


    POTLOK:  cpu time    0.0430: real time    0.0434
    SETDIJ:  cpu time    0.0100: real time    0.0097
     EDDAV:  cpu time   12.9220: real time   12.9316
 BZINTS: Fermi energy:  4.147238;130.000000 electrons
         Band energy:***********;  BLOECHL correction:  0.000000
       DOS:  cpu time    0.0040: real time    0.0045
    CHARGE:  cpu time    0.5229: real time    0.5241
    MIXING:  cpu time    0.0020: real time    0.0018
    --------------------------------------------
      LOOP:  cpu time   13.5039: real time   13.5214

 eigenvalue-minimisations  :  8932
 total energy-change (2. order) : 0.2558912E-03  (-0.3202952E-03)
 number of electron     130.0000007 magnetization 
 augmentation part      -12.6595832 magnetization 

 Broyden mixing:
  rms(total) = 0.60831E-02    rms(broyden)= 0.60782E-02
  rms(prec ) = 0.65499E-02
  weight for this iteration     100.00

 eigenvalues of (default mixing * dielectric matrix)
  average eigenvalue GAMMA=   1.2486
  2.4978  1.7873  1.7333  0.9608  0.7121  0.5044  0.5448

 Free energy of the ion-electron system (eV)
  ---------------------------------------------------
  alpha Z        PSCENC =       172.53402140
  Ewald energy   TEWEN  =     49109.81545835
  -Hartree energ DENC   =    -59836.26666897
  -exchange      EXHF   =         0.00000000
  -V(xc)+E(xc)   XCENC  =        48.09475506
  PAW double counting   =      9343.15813189    -8937.87496988
  entropy T*S    EENTRO =         0.00000000
  eigenvalues    EBANDS =     -1533.21945993
  atomic energy  EATOM  =     11539.74201362
  Solvation  Ediel_sol  =         0.00000000
  ---------------------------------------------------
  free energy    TOTEN  =       -94.01671847 eV

  energy without entropy =      -94.01671847  energy(sigma->0) =      -94.01671847


--------------------------------------------------------------------------------------------------------




----------------------------------------- Iteration    1(  13)  ---------------------------------------


    POTLOK:  cpu time    0.0440: real time    0.0433
    SETDIJ:  cpu time    0.0080: real time    0.0098
     EDDAV:  cpu time   13.3500: real time   13.3640
 BZINTS: Fermi energy:  4.151128;130.000000 electrons
         Band energy:***********;  BLOECHL correction:  0.000000
       DOS:  cpu time    0.0050: real time    0.0044
    CHARGE:  cpu time    0.5269: real time    0.5266
    MIXING:  cpu time    0.0010: real time    0.0020
    --------------------------------------------
      LOOP:  cpu time   13.9369: real time   13.9534

 eigenvalue-minimisations  :  9268
 total energy-change (2. order) : 0.1214448E-03  (-0.9965174E-04)
 number of electron     130.0000007 magnetization 
 augmentation part      -12.6552047 magnetization 

 Broyden mixing:
  rms(total) = 0.25255E-02    rms(broyden)= 0.25230E-02
  rms(prec ) = 0.28436E-02
  weight for this iteration     100.00

 eigenvalues of (default mixing * dielectric matrix)
  average eigenvalue GAMMA=   1.2864
  2.5009  2.5009  1.4966  1.1780  0.8950  0.6609  0.5041  0.5548

 Free energy of the ion-electron system (eV)
  ---------------------------------------------------
  alpha Z        PSCENC =       172.53402140
  Ewald energy   TEWEN  =     49109.81545835
  -Hartree energ DENC   =    -59837.64554501
  -exchange      EXHF   =         0.00000000
[...]
    LRDIAG:  cpu time    0.3110: real time    0.3115
    LRDIIS:  cpu time   11.0833: real time   11.0901
    LRDIAG:  cpu time    0.3040: real time    0.3042
    MIXING:  cpu time    0.0030: real time    0.0030
    --------------------------------------------
      LOOP:  cpu time   15.3637: real time   15.3763

 Broyden mixing:
  rms(total) = 0.19749E-05    rms(broyden)= 0.19747E-05
  rms(prec ) = 0.19794E-05
  weight for this iteration     100.00

 eigenvalues of (default mixing * dielectric matrix)
  average eigenvalue GAMMA=   1.8706
  9.5390  6.0403  3.9668  3.2843  2.8447  2.8447  2.1250  2.0887  1.6319  1.2744
  1.2744  1.0145  1.0145  0.9013  0.9013  0.8982  0.7661  0.6951  0.6846  0.5515
  0.5515  0.5264  0.5189  0.5215  0.3045

 Free energy of the ion-electron system (eV)
  ---------------------------------------------------
  -Hartree energ DENC   =        -1.93858493
  -V(xc)+E(xc)   XCENC  =         0.03283728
  PAW double counting   =         0.07669520       -0.07557547
  entropy T*S    EENTRO =         0.00000000
  eigenvalues    EBANDS =        -0.75145298
  ---------------------------------------------------
  free energy    TOTEN  =        -2.65608091 eV

  energy without entropy =       -2.65608091


----------------------------------------- Iteration    3(  28)  ---------------------------------------


   POT+DIJ:  cpu time    0.1080: real time    0.1084
    HAMIL1:  cpu time    2.4336: real time    2.4361
    LRDIAG:  cpu time    0.3170: real time    0.3163
    LRDIIS:  cpu time   10.5274: real time   10.5343
    LRDIAG:  cpu time    0.3050: real time    0.3048
    MIXING:  cpu time    0.0030: real time    0.0031
    --------------------------------------------
      LOOP:  cpu time   14.8247: real time   14.8367

 Broyden mixing:
  rms(total) = 0.19862E-05    rms(broyden)= 0.19860E-05
  rms(prec ) = 0.19872E-05
  weight for this iteration     100.00

 eigenvalues of (default mixing * dielectric matrix)
  average eigenvalue GAMMA=   1.8524
  9.5377  6.0457  3.9591  3.3964  2.8479  2.8479  2.2235  2.0369  1.7024  1.2819
  1.2573  1.2573  1.0133  1.0133  0.9766  0.8979  0.8575  0.7012  0.6840  0.6626
  0.5515  0.5515  0.5264  0.5209  0.5175  0.2946

 Free energy of the ion-electron system (eV)
  ---------------------------------------------------
  -Hartree energ DENC   =        -1.93858528
  -V(xc)+E(xc)   XCENC  =         0.03283724
  PAW double counting   =         0.07669520       -0.07557547
  entropy T*S    EENTRO =         0.00000000
  eigenvalues    EBANDS =        -0.75193258
  ---------------------------------------------------
  free energy    TOTEN  =        -2.65656088 eV

  energy without entropy =       -2.65656088


----------------------------------------- Iteration    3(  29)  ---------------------------------------


   POT+DIJ:  cpu time    0.1080: real time    0.1094
    HAMIL1:  cpu time    2.4226: real time    2.4241
    LRDIAG:  cpu time    0.3110: real time    0.3112
    LRDIIS:  cpu time   10.5044: real time   10.5102
    LRDIAG:  cpu time    0.3040: real time    0.3045
    MIXING:  cpu time    0.0030: real time    0.0033
    --------------------------------------------
      LOOP:  cpu time   14.7748: real time   14.7866

 Broyden mixing:
  rms(total) = 0.21302E-05    rms(broyden)= 0.21300E-05
  rms(prec ) = 0.21313E-05
  weight for this iteration     100.00

 eigenvalues of (default mixing * dielectric matrix)
  average eigenvalue GAMMA=   1.8440
  9.5386  6.0451  3.9951  3.4007  3.0152  2.8171  2.4558  2.0237  2.0237  1.5165
  1.2549  1.2549  1.0138  1.0138  1.0345  0.8960  0.8960  0.8015  0.6855  0.6937
  0.5515  0.5515  0.5200  0.5267  0.5241  0.4501  0.2872

 Free energy of the ion-electron system (eV)
  ---------------------------------------------------
  -Hartree energ DENC   =        -1.93858528
  -V(xc)+E(xc)   XCENC  =         0.03283722
  PAW double counting   =         0.07669488       -0.07557514
  entropy T*S    EENTRO =         0.00000000
  eigenvalues    EBANDS =        -0.75158405
  ---------------------------------------------------
  free energy    TOTEN  =        -2.65621238 eV

  energy without entropy =       -2.65621238


------------------------ aborting loop because EDIFF is reached ----------------------------------------


 change of polarisation eV/A/(eV/A) component  3 :    -0.000     0.000     5.193
 dielectric tensor                  component  3 :    -0.000     0.000     2.725


--------------------------------------------------------------------------------------------------------


    FORLOC:  cpu time    0.0040: real time    0.0049
    FORNL :  cpu time    2.6576: real time    2.6565
    STRESS:  cpu time    7.7568: real time    7.7600
    FORCOR:  cpu time    0.0440: real time    0.0439
    OFIELD:  cpu time    0.0000: real time    0.0003

  Hirshfeld charges:
            ion         q(e)     
   ------------------------------
      1     Mo          0.242
      2     Mo          0.241
      3     Mo          0.241
      4     Mo          0.241
      5     Mo          0.242
      6     Te         -0.121
      7     Te         -0.121
      8     Te         -0.120
      9     Te         -0.120
     10     Te         -0.120
     11     Te         -0.120
     12     Te         -0.120
     13     Te         -0.120
     14     Te         -0.121
     15     Te         -0.121

  Tkatchenko/Scheffler method for vdW energy calculation
  ---------------------------------------------------------------------------------------------

  Parameters of vdW forcefield:
            C6ts              R0ts           ALPHAts        RELVOL
            (au)              (au)            (au)                
   ---------------------------------------------------------------
   Mo       1114.302          4.156         92.024          1.041
   Mo       1118.989          4.159         92.217          1.043
   Mo       1118.992          4.159         92.217          1.043
   Mo       1118.989          4.159         92.217          1.043
   Mo       1114.302          4.156         92.024          1.041
   Te        411.621          4.241         38.385          1.020
   Te        403.998          4.228         38.028          1.010
   Te        411.643          4.241         38.386          1.020
   Te        411.622          4.241         38.385          1.020
   Te        411.641          4.241         38.386          1.020
   Te        411.641          4.241         38.386          1.020
   Te        411.623          4.241         38.385          1.020
   Te        411.642          4.241         38.386          1.020
   Te        403.998          4.228         38.028          1.010
   Te        411.621          4.241         38.385          1.020
  Edisp (eV):   -5.06384
    FORVDW:  cpu time    0.6479: real time    0.6475
    FORLOC:  cpu time    0.0050: real time    0.0048
    FORNL :  cpu time    2.6696: real time    2.6705
    STRESS:  cpu time    7.7688: real time    7.7750
    FORCOR:  cpu time    0.0430: real time    0.0427
    OFIELD:  cpu time    0.0000: real time    0.0003

  Hirshfeld charges:
            ion         q(e)     
   ------------------------------
      1     Mo          0.242
      2     Mo          0.241
      3     Mo          0.241
      4     Mo          0.241
      5     Mo          0.242
      6     Te         -0.121
      7     Te         -0.121
      8     Te         -0.120
      9     Te         -0.120
     10     Te         -0.120
     11     Te         -0.120
     12     Te         -0.120
     13     Te         -0.120
     14     Te         -0.121
     15     Te         -0.121

  Tkatchenko/Scheffler method for vdW energy calculation
  ---------------------------------------------------------------------------------------------

  Parameters of vdW forcefield:
            C6ts              R0ts           ALPHAts        RELVOL
            (au)              (au)            (au)                
   ---------------------------------------------------------------
   Mo       1114.302          4.156         92.024          1.041
   Mo       1118.989          4.159         92.217          1.043
   Mo       1118.992          4.159         92.217          1.043
   Mo       1118.989          4.159         92.217          1.043
   Mo       1114.302          4.156         92.024          1.041
   Te        411.621          4.241         38.385          1.020
   Te        403.998          4.228         38.028          1.010
   Te        411.642          4.241         38.386          1.020
   Te        411.623          4.241         38.385          1.020
   Te        411.641          4.241         38.386          1.020
   Te        411.641          4.241         38.386          1.020
   Te        411.622          4.241         38.385          1.020
   Te        411.643          4.241         38.386          1.020
   Te        403.998          4.228         38.028          1.010
   Te        411.621          4.241         38.385          1.020
  Edisp (eV):   -5.06384
    FORVDW:  cpu time    0.6479: real time    0.6475
    FORNLD:  cpu time    6.3820: real time    6.3878

 PIEZOELECTRIC TENSOR FIELD DIRECTION 3  (e Angst)
 -----------------------------------------------------------------------------
     0.00091 -0.00000 -0.00000           ( -0.00001  0.00000  0.00000)
     0.00000  0.00091  0.00000           (  0.00000 -0.00001  0.00000)
    -0.00000 -0.00000  0.00215           (  0.00000  0.00000 -0.00001)

 PIEZOELECTRIC TENSOR FIELD DIRECTION 3  (C/m^2)
 -----------------------------------------------------------------------------
     0.00003 -0.00000 -0.00000
     0.00000  0.00003  0.00000
    -0.00000 -0.00000  0.00006


      POSITION         DIRECTION 3           BORN EFFECTIVE CHARGE    (rigid.aug.   ionic)
 -----------------------------------------------------------------------------------------
     -0.00000      1.02404     11.04000     0.00000  0.00000-67.55650 (  0.16212 14.00000)
      1.77370      2.04809     18.02000    -0.00000  0.00000-20.45731 (  0.16198 14.00000)
     -0.00000      1.02404     25.00000     0.00000 -0.00000  0.22918 (  0.16197 14.00000)
      1.77370      2.04809     31.98000     0.00000  0.00000-20.45691 (  0.16198 14.00000)
     -0.00000      1.02404     38.96000     0.00000 -0.00000-67.55532 (  0.16212 14.00000)
      1.77370      2.04809     12.84510     0.00000 -0.00000 -8.50073 (  1.18462  6.00000)
      1.77370      2.04809      9.23490     0.00000  0.00000-17.45135 (  1.18399  6.00000)
     -0.00000      1.02404     19.82510     0.00000  0.00000 -0.33139 (  1.18459  6.00000)
     -0.00000      1.02404     16.21490    -0.00000  0.00000  1.66658 (  1.18455  6.00000)
      1.77370      2.04809     26.80510     0.00000 -0.00000  1.16429 (  1.18459  6.00000)
      1.77370      2.04809     23.19490    -0.00000  0.00000  1.16431 (  1.18459  6.00000)
     -0.00000      1.02404     33.78510    -0.00000  0.00000  1.66660 (  1.18455  6.00000)
     -0.00000      1.02404     30.17490     0.00000 -0.00000 -0.33136 (  1.18459  6.00000)
      1.77370      2.04809     40.76510    -0.00000  0.00000-17.45131 (  1.18399  6.00000)
      1.77370      2.04809     37.15490    -0.00000  0.00000 -8.50074 (  1.18462  6.00000)
 -----------------------------------------------------------------------------------------
    total drift (improves with k-points):   0.00000  0.00000*********




--------------------------------------------------------------------------------------------------------


  LATTYP: Found a hexagonal cell.
 ALAT       =     3.5473923118
 C/A-ratio  =    14.0948605637
  
  Lattice vectors:
  
 A1 = (   3.5473923118,   0.0000000000,   0.0000000000)
 A2 = (  -1.7736961559,   3.0721318592,   0.0000000000)
 A3 = (   0.0000000000,   0.0000000000,  50.0000000000)


Analysis of symmetry for initial positions (statically):
=====================================================================
 Subroutine PRICEL returns:
 Original cell was already a primitive cell.
 

 Routine SETGRP: Setting up the symmetry group for a 
 hexagonal supercell.


 Subroutine GETGRP returns: Found 12 space group operations
 (whereof  4 operations were pure point group operations)
 out of a pool of 24 trial point group operations.


The static configuration has the point symmetry C_2v.
 The point group associated with its full space group is D_3h.


Analysis of symmetry for dynamics (positions and initial velocities):
=====================================================================
 Subroutine PRICEL returns:
 Original cell was already a primitive cell.
 

 Routine SETGRP: Setting up the symmetry group for a 
 hexagonal supercell.


 Subroutine GETGRP returns: Found 12 space group operations
 (whereof  4 operations were pure point group operations)
 out of a pool of 24 trial point group operations.


The dynamic configuration has the point symmetry C_2v.
 The point group associated with its full space group is D_3h.


 Subroutine INISYM returns: Found 12 space group operations
 (whereof  4 operations are pure point group operations),
 and found     1 'primitive' translations



 MACROSCOPIC STATIC DIELECTRIC TENSOR (including local field effects in DFT)
 ------------------------------------------------------
          14.320515    -0.000000     0.000000
           0.000000    14.320515     0.000000
           0.000000     0.000000     2.724559
 ------------------------------------------------------



--------------------------------------------------------------------------------------------------------


  LATTYP: Found a hexagonal cell.
 ALAT       =     3.5473923118
 C/A-ratio  =    14.0948605637
  
  Lattice vectors:
  
 A1 = (   3.5473923118,   0.0000000000,   0.0000000000)
 A2 = (  -1.7736961559,   3.0721318592,   0.0000000000)
 A3 = (   0.0000000000,   0.0000000000,  50.0000000000)


Analysis of symmetry for initial positions (statically):
=====================================================================
 Subroutine PRICEL returns:
 Original cell was already a primitive cell.
 

 Routine SETGRP: Setting up the symmetry group for a 
 hexagonal supercell.


 Subroutine GETGRP returns: Found 12 space group operations
 (whereof  4 operations were pure point group operations)
 out of a pool of 24 trial point group operations.


The static configuration has the point symmetry C_2v.
 The point group associated with its full space group is D_3h.


Analysis of symmetry for dynamics (positions and initial velocities):
=====================================================================
 Subroutine PRICEL returns:
 Original cell was already a primitive cell.
 

 Routine SETGRP: Setting up the symmetry group for a 
 hexagonal supercell.


 Subroutine GETGRP returns: Found 12 space group operations
 (whereof  4 operations were pure point group operations)
 out of a pool of 24 trial point group operations.


The dynamic configuration has the point symmetry C_2v.
 The point group associated with its full space group is D_3h.


 Subroutine INISYM returns: Found 12 space group operations
 (whereof  4 operations are pure point group operations),
 and found     1 'primitive' translations



--------------------------------------------------------------------------------------------------------




 MACROSCOPIC STATIC DIELECTRIC TENSOR (including local field effects in DFT)
 ------------------------------------------------------
          14.320515    -0.000000     0.000000
           0.000000    14.320515     0.000000
           0.000000     0.000000     2.724559
 ------------------------------------------------------


 PIEZOELECTRIC TENSOR  for field in x, y, z        (e  Angst)
          XX          YY          ZZ          XY          YZ          ZX
  --------------------------------------------------------------------------------
  x    -0.01071     0.00571     0.00036    -1.61402     0.00000     0.00000
  y    -1.63060     1.64174     0.00147     0.00000     0.00000     0.00000
  z     0.00091     0.00091     0.00215     0.00000    -0.00000    -0.00000

 PIEZOELECTRIC TENSOR  for field in x, y, z        (C/m^2)
          XX          YY          ZZ          XY          YZ          ZX
  --------------------------------------------------------------------------------
  x     0.00000    -0.00000    -0.00000    -0.04778     0.00000     0.00000
  y    -0.04778     0.04778     0.00000     0.00000     0.00000     0.00000
  z     0.00000     0.00000     0.00000     0.00000     0.00000     0.00000
 
 BORN EFFECTIVE CHARGES (in e, cummulative output)
 -------------------------------------------------
 ion    1
    1    -3.20693    -0.00083     0.00004
    2     0.00000    -3.20730    -0.00011
    3     0.00000     0.00000   -67.55650
 ion    2
    1    -3.19682     0.00089     0.00000
    2    -0.00000    -3.19656    -0.00000
    3    -0.00000     0.00000   -20.45731
 ion    3
    1    -3.20755    -0.00089     0.00000
    2    -0.00000    -3.20792     0.00000
    3     0.00000    -0.00000     0.22918
 ion    4
    1    -3.19682     0.00089    -0.00000
    2    -0.00000    -3.19656     0.00000
    3     0.00000     0.00000   -20.45691
 ion    5
    1    -3.20693    -0.00083    -0.00004
    2     0.00000    -3.20730     0.00011
    3     0.00000    -0.00000   -67.55532
 ion    6
    1     1.59321    -0.00030    -0.00048
    2     0.00000     1.59350     0.00132
    3     0.00000    -0.00000    -8.50073
 ion    7
    1     1.60211    -0.00033     0.00025
    2     0.00000     1.60227    -0.00073
    3     0.00000     0.00000   -17.45135
 ion    8
    1     1.58691     0.00031    -0.00047
    2     0.00000     1.58660     0.00124
    3     0.00000     0.00000    -0.33139
 ion    9
    1     1.58873     0.00031     0.00047
    2     0.00000     1.58843    -0.00124
    3    -0.00000     0.00000     1.66658
 ion   10
    1     1.58705    -0.00030    -0.00047
    2    -0.00000     1.58737     0.00125
    3     0.00000    -0.00000     1.16429
 ion   11
    1     1.58705    -0.00030     0.00047
    2    -0.00000     1.58737    -0.00125
    3    -0.00000     0.00000     1.16431
 ion   12
    1     1.58873     0.00031    -0.00047
    2     0.00000     1.58843     0.00124
    3    -0.00000     0.00000     1.66660
 ion   13
    1     1.58691     0.00031     0.00047
    2     0.00000     1.58660    -0.00124
    3     0.00000    -0.00000    -0.33136
 ion   14
    1     1.60211    -0.00033    -0.00025
    2     0.00000     1.60227     0.00073
    3    -0.00000     0.00000   -17.45131
 ion   15
    1     1.59321    -0.00030     0.00048
    2     0.00000     1.59350    -0.00132
    3    -0.00000     0.00000    -8.50074


--------------------------------------------------------------------------------------------------------


 writing wavefunctions
     LOOP+:  cpu time 7096.0472: real time 7105.0993
    4ORBIT:  cpu time    0.0000: real time    0.0000
 BZINTS: Fermi energy:  4.168401;130.000000 electrons
         Band energy:***********;  BLOECHL correction:  0.000000

 total amount of memory used by VASP on root node   257458. kBytes
========================================================================

   base      :      30000. kBytes
   nonl-proj :     197664. kBytes
   fftplans  :       2737. kBytes
   grid      :      10830. kBytes
   one-center:       1210. kBytes
   wavefun   :      15017. kBytes
 
  
  
 General timing and accounting informations for this job:
 ========================================================
  
                  Total CPU time used (sec):     7100.205
                            User time (sec):     7004.557
                          System time (sec):       95.647
                         Elapsed time (sec):     7110.705
  
                   Maximum memory used (kb):     1261316.
                   Average memory used (kb):           0.
  
                          Minor page faults:     14216877
                          Major page faults:            8
                 Voluntary context switches:         8054
