unknown system                          
           1
     3.547392    0.000000    0.000000
    -1.773696    3.072132    0.000000
     0.000000    0.000000   50.000000
   Mo   Te
   5  10
Direct configuration=     1
   0.16666667  0.33333333  0.22080000
   0.83333333  0.66666667  0.36040000
   0.16666667  0.33333333  0.50000000
   0.83333333  0.66666667  0.63960000
   0.16666667  0.33333333  0.77920000
   0.83333333  0.66666667  0.25690200
   0.83333333  0.66666667  0.18469800
   0.16666667  0.33333333  0.39650200
   0.16666667  0.33333333  0.32429800
   0.83333333  0.66666667  0.53610200
   0.83333333  0.66666667  0.46389800
   0.16666667  0.33333333  0.67570200
   0.16666667  0.33333333  0.60349800
   0.83333333  0.66666667  0.81530200
   0.83333333  0.66666667  0.74309800
