  15  15   0   0
  0.2926669E+02  0.3184067E-09  0.3184067E-09  0.5000000E-08  0.5000000E-15
  1.000000000000000E-004
  CAR 
 unknown system                          
      9.94675616    -62.33740566  301      2.53762957      1.00000000
    -62.337  0.0000E+00  0.0000E+00
    -62.096  0.0000E+00  0.0000E+00
    -61.856  0.0000E+00  0.0000E+00
    -61.615  0.0000E+00  0.0000E+00
    -61.374  0.0000E+00  0.0000E+00
    -61.133  0.0000E+00  0.0000E+00
    -60.892  0.0000E+00  0.0000E+00
    -60.651  0.0000E+00  0.0000E+00
    -60.410  0.0000E+00  0.0000E+00
    -60.169  0.0000E+00  0.0000E+00
    -59.928  0.0000E+00  0.0000E+00
    -59.687  0.0000E+00  0.0000E+00
    -59.446  0.0000E+00  0.0000E+00
    -59.205  0.0000E+00  0.0000E+00
    -58.964  0.0000E+00  0.1000E+02
    -58.723  0.0000E+00  0.1000E+02
    -58.482  0.0000E+00  0.1000E+02
    -58.241  0.0000E+00  0.1000E+02
    -58.000  0.0000E+00  0.1000E+02
    -57.759  0.0000E+00  0.1000E+02
    -57.518  0.0000E+00  0.1000E+02
    -57.278  0.0000E+00  0.1000E+02
    -57.037  0.0000E+00  0.1000E+02
    -56.796  0.0000E+00  0.1000E+02
    -56.555  0.0000E+00  0.1000E+02
    -56.314  0.0000E+00  0.1000E+02
    -56.073  0.0000E+00  0.1000E+02
    -55.832  0.0000E+00  0.1000E+02
    -55.591  0.0000E+00  0.1000E+02
    -55.350  0.0000E+00  0.1000E+02
    -55.109  0.0000E+00  0.1000E+02
    -54.868  0.0000E+00  0.1000E+02
    -54.627  0.0000E+00  0.1000E+02
    -54.386  0.0000E+00  0.1000E+02
    -54.145  0.0000E+00  0.1000E+02
    -53.904  0.0000E+00  0.1000E+02
    -53.663  0.0000E+00  0.1000E+02
    -53.422  0.0000E+00  0.1000E+02
    -53.181  0.0000E+00  0.1000E+02
    -52.940  0.0000E+00  0.1000E+02
    -52.700  0.0000E+00  0.1000E+02
    -52.459  0.0000E+00  0.1000E+02
    -52.218  0.0000E+00  0.1000E+02
    -51.977  0.0000E+00  0.1000E+02
    -51.736  0.0000E+00  0.1000E+02
    -51.495  0.0000E+00  0.1000E+02
    -51.254  0.0000E+00  0.1000E+02
    -51.013  0.0000E+00  0.1000E+02
    -50.772  0.0000E+00  0.1000E+02
    -50.531  0.0000E+00  0.1000E+02
    -50.290  0.0000E+00  0.1000E+02
    -50.049  0.0000E+00  0.1000E+02
    -49.808  0.0000E+00  0.1000E+02
    -49.567  0.0000E+00  0.1000E+02
    -49.326  0.0000E+00  0.1000E+02
    -49.085  0.0000E+00  0.1000E+02
    -48.844  0.0000E+00  0.1000E+02
    -48.603  0.0000E+00  0.1000E+02
    -48.362  0.0000E+00  0.1000E+02
    -48.122  0.0000E+00  0.1000E+02
    -47.881  0.0000E+00  0.1000E+02
    -47.640  0.0000E+00  0.1000E+02
    -47.399  0.0000E+00  0.1000E+02
    -47.158  0.0000E+00  0.1000E+02
    -46.917  0.0000E+00  0.1000E+02
    -46.676  0.0000E+00  0.1000E+02
    -46.435  0.0000E+00  0.1000E+02
    -46.194  0.0000E+00  0.1000E+02
    -45.953  0.0000E+00  0.1000E+02
    -45.712  0.0000E+00  0.1000E+02
    -45.471  0.0000E+00  0.1000E+02
    -45.230  0.0000E+00  0.1000E+02
    -44.989  0.0000E+00  0.1000E+02
    -44.748  0.0000E+00  0.1000E+02
    -44.507  0.0000E+00  0.1000E+02
    -44.266  0.0000E+00  0.1000E+02
    -44.025  0.0000E+00  0.1000E+02
    -43.784  0.0000E+00  0.1000E+02
    -43.544  0.0000E+00  0.1000E+02
    -43.303  0.0000E+00  0.1000E+02
    -43.062  0.0000E+00  0.1000E+02
    -42.821  0.0000E+00  0.1000E+02
    -42.580  0.0000E+00  0.1000E+02
    -42.339  0.0000E+00  0.1000E+02
    -42.098  0.0000E+00  0.1000E+02
    -41.857  0.0000E+00  0.1000E+02
    -41.616  0.0000E+00  0.1000E+02
    -41.375  0.0000E+00  0.1000E+02
    -41.134  0.0000E+00  0.1000E+02
    -40.893  0.0000E+00  0.1000E+02
    -40.652  0.0000E+00  0.1000E+02
    -40.411  0.0000E+00  0.1000E+02
    -40.170  0.0000E+00  0.1000E+02
    -39.929  0.0000E+00  0.1000E+02
    -39.688  0.0000E+00  0.1000E+02
    -39.447  0.0000E+00  0.1000E+02
    -39.206  0.0000E+00  0.1000E+02
    -38.966  0.0000E+00  0.1000E+02
    -38.725  0.0000E+00  0.1000E+02
    -38.484  0.0000E+00  0.1000E+02
    -38.243  0.0000E+00  0.1000E+02
    -38.002  0.0000E+00  0.1000E+02
    -37.761  0.0000E+00  0.1000E+02
    -37.520  0.0000E+00  0.1000E+02
    -37.279  0.0000E+00  0.1000E+02
    -37.038  0.0000E+00  0.1000E+02
    -36.797  0.0000E+00  0.1000E+02
    -36.556  0.0000E+00  0.1000E+02
    -36.315  0.0000E+00  0.1000E+02
    -36.074  0.0000E+00  0.1000E+02
    -35.833  0.0000E+00  0.1000E+02
    -35.592  0.0000E+00  0.1000E+02
    -35.351  0.0000E+00  0.1000E+02
    -35.110  0.0000E+00  0.1000E+02
    -34.869  0.0000E+00  0.1000E+02
    -34.628  0.0000E+00  0.1000E+02
    -34.388  0.0000E+00  0.1000E+02
    -34.147  0.0000E+00  0.1000E+02
    -33.906  0.0000E+00  0.1000E+02
    -33.665  0.0000E+00  0.1000E+02
    -33.424  0.0000E+00  0.1000E+02
    -33.183  0.5384E+02  0.1760E+02
    -32.942  0.0000E+00  0.4000E+02
    -32.701  0.0000E+00  0.4000E+02
    -32.460  0.0000E+00  0.4000E+02
    -32.219  0.0000E+00  0.4000E+02
    -31.978  0.0000E+00  0.4000E+02
    -31.737  0.0000E+00  0.4000E+02
    -31.496  0.0000E+00  0.4000E+02
    -31.255  0.0000E+00  0.4000E+02
    -31.014  0.0000E+00  0.4000E+02
    -30.773  0.0000E+00  0.4000E+02
    -30.532  0.0000E+00  0.4000E+02
    -30.291  0.0000E+00  0.4000E+02
    -30.050  0.0000E+00  0.4000E+02
    -29.810  0.0000E+00  0.4000E+02
    -29.569  0.0000E+00  0.4000E+02
    -29.328  0.0000E+00  0.4000E+02
    -29.087  0.0000E+00  0.4000E+02
    -28.846  0.0000E+00  0.4000E+02
    -28.605  0.0000E+00  0.4000E+02
    -28.364  0.0000E+00  0.4000E+02
    -28.123  0.0000E+00  0.4000E+02
    -27.882  0.0000E+00  0.4000E+02
    -27.641  0.0000E+00  0.4000E+02
    -27.400  0.0000E+00  0.4000E+02
    -27.159  0.0000E+00  0.4000E+02
    -26.918  0.0000E+00  0.4000E+02
    -26.677  0.0000E+00  0.4000E+02
    -26.436  0.0000E+00  0.4000E+02
    -26.195  0.0000E+00  0.4000E+02
    -25.954  0.0000E+00  0.4000E+02
    -25.713  0.0000E+00  0.4000E+02
    -25.472  0.0000E+00  0.4000E+02
    -25.232  0.0000E+00  0.4000E+02
    -24.991  0.0000E+00  0.4000E+02
    -24.750  0.0000E+00  0.4000E+02
    -24.509  0.0000E+00  0.4000E+02
    -24.268  0.0000E+00  0.4000E+02
    -24.027  0.0000E+00  0.4000E+02
    -23.786  0.0000E+00  0.4000E+02
    -23.545  0.0000E+00  0.4000E+02
    -23.304  0.0000E+00  0.4000E+02
    -23.063  0.0000E+00  0.4000E+02
    -22.822  0.0000E+00  0.4000E+02
    -22.581  0.0000E+00  0.4000E+02
    -22.340  0.0000E+00  0.4000E+02
    -22.099  0.0000E+00  0.4000E+02
    -21.858  0.0000E+00  0.4000E+02
    -21.617  0.0000E+00  0.4000E+02
    -21.376  0.0000E+00  0.4000E+02
    -21.135  0.0000E+00  0.4000E+02
    -20.894  0.0000E+00  0.4000E+02
    -20.654  0.0000E+00  0.4000E+02
    -20.413  0.0000E+00  0.4000E+02
    -20.172  0.0000E+00  0.4000E+02
    -19.931  0.0000E+00  0.4000E+02
    -19.690  0.0000E+00  0.4000E+02
    -19.449  0.0000E+00  0.4000E+02
    -19.208  0.0000E+00  0.4000E+02
    -18.967  0.0000E+00  0.4000E+02
    -18.726  0.0000E+00  0.4000E+02
    -18.485  0.0000E+00  0.4000E+02
    -18.244  0.0000E+00  0.4000E+02
    -18.003  0.0000E+00  0.4000E+02
    -17.762  0.0000E+00  0.4000E+02
    -17.521  0.0000E+00  0.4000E+02
    -17.280  0.0000E+00  0.4000E+02
    -17.039  0.0000E+00  0.4000E+02
    -16.798  0.0000E+00  0.4000E+02
    -16.557  0.0000E+00  0.4000E+02
    -16.316  0.0000E+00  0.4000E+02
    -16.076  0.0000E+00  0.4000E+02
    -15.835  0.0000E+00  0.4000E+02
    -15.594  0.0000E+00  0.4000E+02
    -15.353  0.0000E+00  0.4000E+02
    -15.112  0.0000E+00  0.4000E+02
    -14.871  0.0000E+00  0.4000E+02
    -14.630  0.0000E+00  0.4000E+02
    -14.389  0.0000E+00  0.4000E+02
    -14.148  0.0000E+00  0.4000E+02
    -13.907  0.0000E+00  0.4000E+02
    -13.666  0.0000E+00  0.4000E+02
    -13.425  0.0000E+00  0.4000E+02
    -13.184  0.0000E+00  0.4000E+02
    -12.943  0.0000E+00  0.4000E+02
    -12.702  0.0000E+00  0.4000E+02
    -12.461  0.0000E+00  0.4000E+02
    -12.220  0.1453E+01  0.4016E+02
    -11.979  0.2631E+01  0.4072E+02
    -11.738  0.2857E+01  0.4138E+02
    -11.498  0.3135E+01  0.4210E+02
    -11.257  0.3519E+01  0.4290E+02
    -11.016  0.6380E+01  0.4403E+02
    -10.775  0.1142E+02  0.4603E+02
    -10.534  0.1661E+02  0.4934E+02
    -10.293  0.2427E+02  0.5455E+02
    -10.052  0.1144E+01  0.6000E+02
     -9.811  0.0000E+00  0.6000E+02
     -9.570  0.0000E+00  0.6000E+02
     -9.329  0.0000E+00  0.6000E+02
     -9.088  0.0000E+00  0.6000E+02
     -8.847  0.0000E+00  0.6000E+02
     -8.606  0.0000E+00  0.6000E+02
     -8.365  0.0000E+00  0.6000E+02
     -8.124  0.0000E+00  0.6000E+02
     -7.883  0.0000E+00  0.6000E+02
     -7.642  0.0000E+00  0.6000E+02
     -7.401  0.0000E+00  0.6000E+02
     -7.160  0.0000E+00  0.6000E+02
     -6.920  0.0000E+00  0.6000E+02
     -6.679  0.0000E+00  0.6000E+02
     -6.438  0.0000E+00  0.6000E+02
     -6.197  0.0000E+00  0.6000E+02
     -5.956  0.0000E+00  0.6000E+02
     -5.715  0.0000E+00  0.6000E+02
     -5.474  0.0000E+00  0.6000E+02
     -5.233  0.0000E+00  0.6000E+02
     -4.992  0.0000E+00  0.6000E+02
     -4.751  0.0000E+00  0.6000E+02
     -4.510  0.0000E+00  0.6000E+02
     -4.269  0.0000E+00  0.6000E+02
     -4.028  0.2267E+01  0.6016E+02
     -3.787  0.7138E+01  0.6117E+02
     -3.546  0.1384E+02  0.6342E+02
     -3.305  0.1036E+02  0.6747E+02
     -3.064  0.1605E+02  0.7118E+02
     -2.823  0.7787E+01  0.7408E+02
     -2.582  0.4171E+01  0.7526E+02
     -2.342  0.1134E+02  0.7669E+02
     -2.101  0.1492E+02  0.7963E+02
     -1.860  0.1423E+02  0.8403E+02
     -1.619  0.9660E+01  0.8709E+02
     -1.378  0.1790E+02  0.8976E+02
     -1.137  0.1176E+02  0.9506E+02
     -0.896  0.8821E+01  0.9790E+02
     -0.655  0.9773E+01  0.9991E+02
     -0.414  0.7712E+01  0.1022E+03
     -0.173  0.3989E+02  0.1049E+03
      0.068  0.1878E+02  0.1098E+03
      0.309  0.1205E+02  0.1133E+03
      0.550  0.1315E+02  0.1163E+03
      0.791  0.6006E+01  0.1188E+03
      1.032  0.2057E+02  0.1210E+03
      1.273  0.1290E+02  0.1253E+03
      1.514  0.1034E+02  0.1279E+03
      1.755  0.3493E+01  0.1292E+03
      1.995  0.9669E+00  0.1297E+03
      2.236  0.5679E+00  0.1299E+03
      2.477  0.7940E-01  0.1300E+03
      2.718  0.0000E+00  0.1300E+03
      2.959  0.0000E+00  0.1300E+03
      3.200  0.0000E+00  0.1300E+03
      3.441  0.1521E+00  0.1300E+03
      3.682  0.7387E+01  0.1310E+03
      3.923  0.1301E+02  0.1337E+03
      4.164  0.1470E+02  0.1389E+03
      4.405  0.2504E+02  0.1438E+03
      4.646  0.2433E+02  0.1499E+03
      4.887  0.1050E+02  0.1536E+03
      5.128  0.1044E+02  0.1562E+03
      5.369  0.1071E+02  0.1589E+03
      5.610  0.7163E+01  0.1608E+03
      5.851  0.9817E+01  0.1626E+03
      6.092  0.8951E+01  0.1652E+03
      6.333  0.4547E+01  0.1669E+03
      6.573  0.2843E+01  0.1678E+03
      6.814  0.0000E+00  0.1680E+03
      7.055  0.0000E+00  0.1680E+03
      7.296  0.0000E+00  0.1680E+03
      7.537  0.0000E+00  0.1680E+03
      7.778  0.0000E+00  0.1680E+03
      8.019  0.0000E+00  0.1680E+03
      8.260  0.0000E+00  0.1680E+03
      8.501  0.0000E+00  0.1680E+03
      8.742  0.0000E+00  0.1680E+03
      8.983  0.0000E+00  0.1680E+03
      9.224  0.0000E+00  0.1680E+03
      9.465  0.0000E+00  0.1680E+03
      9.706  0.0000E+00  0.1680E+03
      9.947  0.0000E+00  0.1680E+03
