       N       E                     dE             d eps       ncg     rms          rms(c)
DAV:   1     0.923096118163E+03    0.92310E+03   -0.58335E+04  7280   0.103E+03
DAV:   2    -0.521656531497E+02   -0.97526E+03   -0.96072E+03  9268   0.409E+02
DAV:   3    -0.126906786942E+03   -0.74741E+02   -0.74303E+02  8344   0.108E+02
DAV:   4    -0.130881448754E+03   -0.39747E+01   -0.39675E+01 12376   0.275E+01
DAV:   5    -0.130903478587E+03   -0.22030E-01   -0.22013E-01  8316   0.175E+00    0.236E+01
DAV:   6    -0.116803757312E+03    0.14100E+02   -0.11608E+02 10640   0.436E+01    0.121E+01
DAV:   7    -0.113109799525E+03    0.36940E+01   -0.27277E+01 10136   0.222E+01    0.657E+00
DAV:   8    -0.112871426090E+03    0.23837E+00   -0.27154E+00 10724   0.735E+00    0.135E+00
DAV:   9    -0.112824767088E+03    0.46659E-01   -0.22171E-01  9940   0.250E+00    0.541E-01
DAV:  10    -0.112823392196E+03    0.13749E-02   -0.33118E-02  9940   0.750E-01    0.230E-01
DAV:  11    -0.112822726862E+03    0.66533E-03   -0.53890E-03  9660   0.311E-01    0.937E-02
DAV:  12    -0.112822534145E+03    0.19272E-03   -0.11861E-03  9660   0.162E-01    0.472E-02
DAV:  13    -0.112822497873E+03    0.36272E-04   -0.37045E-04  9324   0.675E-02    0.187E-02
DAV:  14    -0.112822507286E+03   -0.94126E-05   -0.40947E-05  8932   0.277E-02    0.111E-02
DAV:  15    -0.112822527494E+03   -0.20208E-04   -0.17854E-05  8288   0.179E-02    0.514E-03
DAV:  16    -0.112822550496E+03   -0.23002E-04   -0.63740E-06  8736   0.101E-02    0.381E-03
DAV:  17    -0.112822602624E+03   -0.52128E-04   -0.11088E-05  8288   0.763E-03    0.230E-03
DAV:  18    -0.112822627076E+03   -0.24452E-04   -0.19775E-06  8260   0.380E-03    0.154E-03
DAV:  19    -0.112822656755E+03   -0.29679E-04   -0.19347E-06  8232   0.336E-03    0.921E-04
DAV:  20    -0.112822664780E+03   -0.80251E-05   -0.22309E-07  8372   0.160E-03    0.631E-04
DAV:  21    -0.112822675781E+03   -0.11001E-04   -0.11210E-07  7644   0.986E-04    0.372E-04
DAV:  22    -0.112822683687E+03   -0.79059E-05   -0.12792E-07  7252   0.719E-04    0.208E-04
DAV:  23    -0.112822686378E+03   -0.26912E-05   -0.26134E-08  6832   0.446E-04    0.106E-04
DAV:  24    -0.112822687802E+03   -0.14233E-05   -0.18747E-08  6664   0.322E-04    0.546E-05
DAV:  25    -0.112822688357E+03   -0.55538E-06   -0.55019E-09  6216   0.217E-04    0.351E-05
DAV:  26    -0.112822688623E+03   -0.26582E-06   -0.34528E-09  6272   0.191E-04    0.220E-05
DAV:  27    -0.112822688661E+03   -0.37853E-07   -0.69841E-10  6020   0.129E-04    0.115E-05
DAV:  28    -0.112822688683E+03   -0.22033E-07   -0.33836E-10  6216   0.826E-05    0.100E-05
DAV:  29    -0.112822688694E+03   -0.11280E-07   -0.29687E-10  6104   0.689E-05    0.506E-06
DAV:  30    -0.112822688699E+03   -0.48767E-08   -0.77616E-11  6160   0.455E-05
   1 F= -.11729038E+03 E0= -.11729038E+03  d E =0.000000E+00
 Linear response reoptimize wavefunctions
DAV:   1    -0.112822688705E+03    0.44677E+01   -0.77299E-11  6216   0.371E-05
DAV:   2    -0.112822688705E+03   -0.10186E-09   -0.46916E-11  5740   0.223E-05
DAV:   3    -0.112822688705E+03   -0.10186E-09   -0.24166E-11  6160   0.133E-05
 Linear response G [H, r] |phi>, progress :
  Direction:   1
       N       E                     dE             d eps       ncg     rms
RMM:   1    -0.499802574768E+03   -0.49980E+03   -0.19235E+02  8498   0.526E+02
RMM:   2    -0.514591323362E+03   -0.14789E+02   -0.65468E+02  9846   0.705E+01
RMM:   3    -0.530239875012E+03   -0.15649E+02   -0.67079E+01 10232   0.206E+01
RMM:   4    -0.531943686091E+03   -0.17038E+01   -0.52591E+00 12074   0.571E+00
RMM:   5    -0.532044602936E+03   -0.10092E+00   -0.62045E-01 12533   0.189E+00
RMM:   6    -0.532062269220E+03   -0.17666E-01   -0.11017E-01 13506   0.685E-01
RMM:   7    -0.532064120135E+03   -0.18509E-02   -0.15598E-02 13746   0.259E-01
RMM:   8    -0.532064308888E+03   -0.18875E-03    0.18180E-03 14475   0.106E-01
RMM:   9    -0.532064509348E+03   -0.20046E-03    0.33989E-03 15219   0.463E-02
RMM:  10    -0.532064805063E+03   -0.29572E-03    0.11243E-03 16036   0.241E-02
RMM:  11    -0.532064754954E+03    0.50109E-04    0.17506E-03 16225   0.171E-02
RMM:  12    -0.532064803912E+03   -0.48958E-04    0.12848E-03 16342   0.151E-02
RMM:  13    -0.532064727105E+03    0.76807E-04    0.20579E-03 16301   0.146E-02
RMM:  14    -0.532064872416E+03   -0.14531E-03    0.60603E-04 16232   0.145E-02
 Linear response G [H, r] |phi>, progress :
  Direction:   2
       N       E                     dE             d eps       ncg     rms
RMM:   1    -0.476933875495E+03   -0.47693E+03   -0.87061E+01  8386   0.532E+02
RMM:   2    -0.536636906194E+03   -0.59703E+02   -0.70520E+02  9527   0.729E+01
RMM:   3    -0.555032489980E+03   -0.18396E+02   -0.77103E+01 10313   0.212E+01
RMM:   4    -0.556776484089E+03   -0.17440E+01   -0.54918E+00 11916   0.580E+00
RMM:   5    -0.556903676445E+03   -0.12719E+00   -0.66619E-01 12645   0.193E+00
RMM:   6    -0.556922934621E+03   -0.19258E-01   -0.12830E-01 13380   0.698E-01
RMM:   7    -0.556925044587E+03   -0.21100E-02   -0.17175E-02 13727   0.264E-01
RMM:   8    -0.556925714301E+03   -0.66971E-03   -0.41466E-03 14410   0.103E-01
RMM:   9    -0.556925673142E+03    0.41159E-04    0.10229E-04 15300   0.444E-02
RMM:  10    -0.556925721545E+03   -0.48403E-04    0.23195E-04 15832   0.234E-02
RMM:  11    -0.556925769054E+03   -0.47508E-04   -0.13076E-04 16206   0.169E-02
RMM:  12    -0.556925704797E+03    0.64257E-04    0.52678E-04 16290   0.152E-02
RMM:  13    -0.556925740589E+03   -0.35792E-04    0.17088E-04 16262   0.148E-02
RMM:  14    -0.556925698711E+03    0.41878E-04    0.58953E-04 16198   0.147E-02
 Linear response G [H, r] |phi>, progress :
  Direction:   3
       N       E                     dE             d eps       ncg     rms
RMM:   1    -0.483779490198E+03   -0.48378E+03    0.29341E+02  8944   0.527E+02
RMM:   2    -0.528216028123E+03   -0.44437E+02   -0.63456E+02  9639   0.689E+01
RMM:   3    -0.542426515437E+03   -0.14210E+02   -0.56642E+01  9935   0.204E+01
RMM:   4    -0.543596881519E+03   -0.11704E+01   -0.49608E+00 12221   0.574E+00
RMM:   5    -0.543690638275E+03   -0.93757E-01   -0.73799E-01 13046   0.188E+00
RMM:   6    -0.543704629980E+03   -0.13992E-01   -0.12504E-01 13355   0.669E-01
RMM:   7    -0.543706760788E+03   -0.21308E-02   -0.20678E-02 13524   0.256E-01
RMM:   8    -0.543707416905E+03   -0.65612E-03   -0.39859E-03 14044   0.104E-01
RMM:   9    -0.543707590470E+03   -0.17356E-03   -0.12008E-03 14740   0.468E-02
RMM:  10    -0.543707623407E+03   -0.32938E-04   -0.44109E-04 15157   0.259E-02
RMM:  11    -0.543707644366E+03   -0.20959E-04   -0.44223E-04 15731   0.189E-02
RMM:  12    -0.543707649983E+03   -0.56167E-05   -0.42693E-04 15813   0.168E-02
RMM:  13    -0.543707647766E+03    0.22167E-05   -0.38816E-04 15655   0.162E-02
RMM:  14    -0.543707652535E+03   -0.47690E-05   -0.43006E-04 15615   0.160E-02
 Linear response to external field (no local field effect), progress :
  Direction:   1
       N       E                     dE             d eps       ncg     rms          rms(c)
RMM:   1    -0.911043839916E+01   -0.91104E+01   -0.60495E+01 14164   0.921E+00
RMM:   2    -0.113660311159E+02   -0.22556E+01   -0.65878E-02  8437   0.245E+00
RMM:   3    -0.114690916504E+02   -0.10306E+00   -0.14750E-01 10924   0.679E-01
RMM:   4    -0.114741649144E+02   -0.50733E-02   -0.14297E-02 11368   0.206E-01
RMM:   5    -0.114745872562E+02   -0.42234E-03   -0.23294E-03 12633   0.768E-02
RMM:   6    -0.114746780174E+02   -0.90761E-04   -0.45795E-04 13204   0.296E-02
RMM:   7    -0.114746926077E+02   -0.14590E-04   -0.83369E-05 13607   0.115E-02
RMM:   8    -0.114746953995E+02   -0.27918E-05   -0.21353E-05 13582   0.496E-03
RMM:   9    -0.114746959366E+02   -0.53708E-06   -0.81642E-06 13323   0.242E-03
RMM:  10    -0.114746960601E+02   -0.12348E-06   -0.63340E-06 13566   0.155E-03
RMM:  11    -0.114746960882E+02   -0.28129E-07   -0.59030E-06 13468   0.124E-03
RMM:  12    -0.114746960958E+02   -0.75769E-08   -0.58520E-06 13238   0.115E-03
RMM:  13    -0.114746960976E+02   -0.17802E-08   -0.58484E-06 12940   0.113E-03
RMM:  14    -0.114746960986E+02   -0.10669E-08   -0.58563E-06 12668   0.112E-03
 Linear response to external field (no local field effect), progress :
  Direction:   2
       N       E                     dE             d eps       ncg     rms          rms(c)
RMM:   1    -0.930143026881E+01   -0.93014E+01   -0.60662E+01 14089   0.932E+00
RMM:   2    -0.111854519468E+02   -0.18840E+01    0.16565E-01  8355   0.246E+00
RMM:   3    -0.113045151150E+02   -0.11906E+00   -0.15897E-01 10928   0.696E-01
RMM:   4    -0.113097183203E+02   -0.52032E-02   -0.15395E-02 11482   0.215E-01
RMM:   5    -0.113102877686E+02   -0.56945E-03   -0.25368E-03 12576   0.798E-02
RMM:   6    -0.113103806695E+02   -0.92901E-04   -0.46545E-04 13152   0.310E-02
RMM:   7    -0.113103975780E+02   -0.16909E-04   -0.95401E-05 13537   0.121E-02
RMM:   8    -0.113104000146E+02   -0.24366E-05   -0.23733E-05 13457   0.537E-03
RMM:   9    -0.113104006140E+02   -0.59943E-06   -0.11795E-05 13270   0.269E-03
RMM:  10    -0.113104007118E+02   -0.97770E-07   -0.93061E-06 13552   0.178E-03
RMM:  11    -0.113104007382E+02   -0.26441E-07   -0.88848E-06 13352   0.145E-03
RMM:  12    -0.113104007473E+02   -0.90730E-08   -0.88588E-06 13121   0.135E-03
RMM:  13    -0.113104007516E+02   -0.43131E-08   -0.88783E-06 12884   0.132E-03
 Linear response to external field (no local field effect), progress :
  Direction:   3
       N       E                     dE             d eps       ncg     rms          rms(c)
RMM:   1    -0.562999944483E+01   -0.56300E+01   -0.29757E+01 14041   0.850E+00
RMM:   2    -0.636582434074E+01   -0.73582E+00   -0.10660E-01  7728   0.208E+00
RMM:   3    -0.640574034408E+01   -0.39916E-01   -0.77365E-02 10574   0.571E-01
RMM:   4    -0.640810179808E+01   -0.23615E-02   -0.79427E-03 11507   0.173E-01
RMM:   5    -0.640832634027E+01   -0.22454E-03   -0.12888E-03 12344   0.643E-02
RMM:   6    -0.640836328831E+01   -0.36948E-04   -0.19421E-04 13023   0.237E-02
RMM:   7    -0.640836891610E+01   -0.56278E-05   -0.40547E-05 13440   0.934E-03
RMM:   8    -0.640836971057E+01   -0.79447E-06   -0.12718E-05 13039   0.406E-03
RMM:   9    -0.640836987098E+01   -0.16041E-06   -0.89093E-06 13177   0.219E-03
RMM:  10    -0.640836987617E+01   -0.51876E-08   -0.80031E-06 13298   0.156E-03
RMM:  11    -0.640836991312E+01   -0.36957E-07   -0.82257E-06 13354   0.134E-03
RMM:  12    -0.640836988822E+01    0.24905E-07   -0.79418E-06 12945   0.128E-03
RMM:  13    -0.640836989116E+01   -0.29462E-08   -0.79818E-06 12639   0.127E-03
 Linear response to external field, progress :
  Direction:   1
       N       E                     dE             d eps       ncg     rms          rms(c)
RMM:   1    -0.923383316939E+01   -0.92338E+01   -0.60857E+01 62846   0.921E+00
RMM:   2    -0.112794429613E+02   -0.20456E+01    0.27452E-02 37309   0.241E+00    0.721E+00
RMM:   3    -0.109136970025E+02    0.36575E+00   -0.50570E-01 44298   0.287E+00    0.380E+00
RMM:   4    -0.111784824391E+02   -0.26479E+00   -0.37188E-01 45699   0.272E+00    0.663E-01
RMM:   5    -0.112671072420E+02   -0.88625E-01   -0.35211E-02 48970   0.794E-01    0.130E-01
RMM:   6    -0.112817583951E+02   -0.14651E-01   -0.48224E-03 49852   0.194E-01    0.554E-02
RMM:   7    -0.112833314203E+02   -0.15730E-02   -0.25195E-03 51065   0.724E-02    0.143E-02
RMM:   8    -0.112831621581E+02    0.16926E-03   -0.13011E-04 56845   0.224E-02    0.878E-03
RMM:   9    -0.112832522036E+02   -0.90046E-04    0.64927E-04 56796   0.105E-02    0.442E-03
RMM:  10    -0.112835369161E+02   -0.28471E-03    0.52126E-05 55010   0.549E-03    0.102E-03
RMM:  11    -0.112835759034E+02   -0.38987E-04   -0.50582E-05 59381   0.269E-03    0.618E-04
RMM:  12    -0.112835875638E+02   -0.11660E-04   -0.23904E-05 64642   0.156E-03    0.308E-04
RMM:  13    -0.112835934233E+02   -0.58595E-05   -0.86096E-06 57013   0.131E-03    0.240E-04
RMM:  14    -0.112835909768E+02    0.24465E-05   -0.48975E-07 63920   0.116E-03    0.592E-05
RMM:  15    -0.112835916203E+02   -0.64352E-06   -0.64183E-08 62516   0.114E-03    0.165E-04
RMM:  16    -0.112835936349E+02   -0.20146E-05   -0.64136E-06 59807   0.112E-03    0.640E-05
RMM:  17    -0.112835937542E+02   -0.11929E-06   -0.49379E-06 58575   0.112E-03    0.137E-04
RMM:  18    -0.112835939255E+02   -0.17130E-06   -0.56600E-06 58487   0.112E-03    0.734E-05
RMM:  19    -0.112835938005E+02    0.12496E-06   -0.46561E-06 57980   0.112E-03    0.121E-04
RMM:  20    -0.112835938744E+02   -0.73905E-07   -0.52053E-06 57988   0.112E-03    0.771E-05
RMM:  21    -0.112835938195E+02    0.54934E-07   -0.47090E-06 57854   0.112E-03    0.112E-04
RMM:  22    -0.112835938894E+02   -0.69926E-07   -0.52361E-06 58009   0.112E-03    0.827E-05
RMM:  23    -0.112835938183E+02    0.71165E-07   -0.47834E-06 57904   0.112E-03    0.105E-04
RMM:  24    -0.112835938847E+02   -0.66428E-07   -0.52764E-06 57883   0.112E-03    0.851E-05
RMM:  25    -0.112835937851E+02    0.99649E-07   -0.46497E-06 57908   0.112E-03    0.980E-05
RMM:  26    -0.112835938822E+02   -0.97141E-07   -0.52529E-06 57989   0.112E-03    0.857E-05
RMM:  27    -0.112835938282E+02    0.53990E-07   -0.47248E-06 57972   0.112E-03    0.950E-05
 Linear response to external field, progress :
  Direction:   2
       N       E                     dE             d eps       ncg     rms          rms(c)
RMM:   1    -0.924975024597E+01   -0.92498E+01   -0.61016E+01 34745   0.921E+00
RMM:   2    -0.112834836073E+02   -0.20337E+01   -0.21243E-02 20868   0.240E+00    0.721E+00
RMM:   3    -0.109126604703E+02    0.37082E+00   -0.49747E-01 24523   0.287E+00    0.380E+00
RMM:   4    -0.111771643084E+02   -0.26450E+00   -0.35949E-01 25195   0.272E+00    0.662E-01
RMM:   5    -0.112676293661E+02   -0.90465E-01   -0.37362E-02 27067   0.789E-01    0.130E-01
RMM:   6    -0.112806027960E+02   -0.12973E-01   -0.46030E-03 28031   0.193E-01    0.619E-02
RMM:   7    -0.112827065546E+02   -0.21038E-02    0.30699E-03 28239   0.779E-02    0.298E-02
RMM:   8    -0.112830018693E+02   -0.29531E-03    0.60935E-04 30975   0.303E-02    0.935E-03
RMM:   9    -0.112832571889E+02   -0.25532E-03   -0.32161E-04 30547   0.121E-02    0.483E-03
RMM:  10    -0.112835111277E+02   -0.25394E-03   -0.16779E-04 30787   0.552E-03    0.134E-03
RMM:  11    -0.112835346598E+02   -0.23532E-04   -0.19694E-05 34015   0.263E-03    0.781E-04
RMM:  12    -0.112835551629E+02   -0.20503E-04    0.44941E-06 35383   0.164E-03    0.298E-04
RMM:  13    -0.112835634639E+02   -0.83009E-05    0.18070E-06 35416   0.125E-03    0.184E-04
RMM:  14    -0.112835644989E+02   -0.10350E-05   -0.92075E-06 35020   0.114E-03    0.108E-04
RMM:  15    -0.112835642086E+02    0.29028E-06   -0.56849E-06 33806   0.112E-03    0.111E-04
RMM:  16    -0.112835651738E+02   -0.96514E-06   -0.45679E-06 32889   0.111E-03    0.964E-05
RMM:  17    -0.112835654644E+02   -0.29059E-06   -0.44773E-06 32439   0.111E-03    0.896E-05
RMM:  18    -0.112835656010E+02   -0.13663E-06   -0.52186E-06 32305   0.110E-03    0.958E-05
 Linear response to external field, progress :
  Direction:   3
       N       E                     dE             d eps       ncg     rms          rms(c)
RMM:   1    -0.562999944483E+01   -0.56300E+01   -0.29757E+01 14041   0.850E+00
RMM:   2    -0.636582434074E+01   -0.73582E+00   -0.10660E-01  7728   0.208E+00    0.599E+00
RMM:   3    -0.589291729214E+01    0.47291E+00   -0.47811E+01  9415   0.554E+00    0.246E+00
RMM:   4    -0.193642173872E+01    0.39565E+01   -0.21435E+00 10443   0.182E+00    0.117E+00
RMM:   5    -0.262869400782E+01   -0.69227E+00   -0.11550E+01  9902   0.118E+00    0.419E-01
RMM:   6    -0.222504108820E+01    0.40365E+00   -0.81333E+00 11020   0.551E-01    0.327E-01
RMM:   7    -0.199716400648E+01    0.22788E+00   -0.63534E+00 11132   0.315E-01    0.247E-01
RMM:   8    -0.216579650239E+01   -0.16863E+00   -0.82833E+00 10164   0.266E-01    0.101E-01
RMM:   9    -0.175772411068E+01    0.40807E+00   -0.42507E+00 11325   0.146E-01    0.575E-02
RMM:  10    -0.135898575185E+01    0.39874E+00   -0.28779E-01 10973   0.754E-02    0.255E-02
RMM:  11    -0.134793529410E+01    0.11050E-01   -0.17473E-01 11632   0.310E-02    0.180E-02
RMM:  12    -0.130269866288E+01    0.45237E-01    0.27979E-01  9810   0.301E-02    0.101E-02
RMM:  13    -0.131147884188E+01   -0.87802E-02    0.19610E-01 10246   0.188E-02    0.693E-03
RMM:  14    -0.132090920190E+01   -0.94304E-02    0.10704E-01 10372   0.144E-02    0.470E-03
RMM:  15    -0.132820535697E+01   -0.72962E-02    0.35671E-02 10464   0.663E-03    0.208E-03
RMM:  16    -0.133161083042E+01   -0.34055E-02    0.20575E-03 10324   0.460E-03    0.161E-03
RMM:  17    -0.133084985373E+01    0.76098E-03    0.98196E-03 10358   0.369E-03    0.799E-04
RMM:  18    -0.133124026976E+01   -0.39042E-03    0.59993E-03 10215   0.329E-03    0.443E-04
RMM:  19    -0.133211511962E+01   -0.87485E-03   -0.28906E-03 10828   0.181E-03    0.237E-04
RMM:  20    -0.133198195487E+01    0.13316E-03   -0.16455E-03 11176   0.110E-03    0.197E-04
RMM:  21    -0.133171588977E+01    0.26607E-03    0.10089E-03 11658   0.659E-04    0.111E-04
RMM:  22    -0.133201356186E+01   -0.29767E-03   -0.19961E-03 11041   0.535E-04    0.971E-05
RMM:  23    -0.133216707586E+01   -0.15351E-03   -0.35574E-03 10923   0.520E-04    0.450E-05
RMM:  24    -0.133188585823E+01    0.28122E-03   -0.75139E-04 11841   0.331E-04    0.401E-05
RMM:  25    -0.133211889459E+01   -0.23304E-03   -0.30741E-03 12239   0.279E-04    0.199E-05
RMM:  26    -0.133208710410E+01    0.31790E-04   -0.27538E-03 12277   0.261E-04    0.152E-05
RMM:  27    -0.133221872610E+01   -0.13162E-03   -0.40675E-03 11787   0.251E-04    0.153E-05
RMM:  28    -0.133197992254E+01    0.23880E-03   -0.16786E-03 11602   0.246E-04    0.148E-05
