 vasp.5.4.1 24Jun15 (build Apr 13 2016 13:07:19) complex                        
  
 executed on           IFC91_ompi date 2019.09.13  21:49:04
 running on   28 total cores
 distrk:  each k-point on   28 cores,    1 groups
 distr:  one band on NCORES_PER_BAND=   1 cores,   28 groups


--------------------------------------------------------------------------------------------------------


 INCAR:
 POTCAR:    PAW_PBE Mo_sv_GW 05Dec2013            
 POTCAR:    PAW_PBE S_GW 19Mar2012                

 ----------------------------------------------------------------------------- 
|                                                                             |
|           W    W    AA    RRRRR   N    N  II  N    N   GGGG   !!!           |
|           W    W   A  A   R    R  NN   N  II  NN   N  G    G  !!!           |
|           W    W  A    A  R    R  N N  N  II  N N  N  G       !!!           |
|           W WW W  AAAAAA  RRRRR   N  N N  II  N  N N  G  GGG   !            |
|           WW  WW  A    A  R   R   N   NN  II  N   NN  G    G                |
|           W    W  A    A  R    R  N    N  II  N    N   GGGG   !!!           |
|                                                                             |
|      For optimal performance we recommend to set                            |
|        NCORE= 4 - approx SQRT( number of cores)                             |
|      NCORE specifies how many cores store one orbital (NPAR=cpu/NCORE).     |
|      This setting can  greatly improve the performance of VASP for DFT.     |
|      The default, NPAR=number of cores might be grossly inefficient         |
|      on modern multi-core architectures or massively parallel machines.     |
|      Do your own testing !!!!                                               |
|      Unfortunately you need to use the default for GW and RPA calculations. |
|      (for HF NCORE is supported but not extensively tested yet)             |
|                                                                             |
 ----------------------------------------------------------------------------- 

 POTCAR:    PAW_PBE Mo_sv_GW 05Dec2013            
   VRHFIN =Mo: 4s4p5s4d                                                         
   LEXCH  = PE                                                                  
   EATOM  =  1861.5185 eV,  136.8178 Ry                                         
                                                                                
   TITEL  = PAW_PBE Mo_sv_GW 05Dec2013                                          
   LULTRA =        F    use ultrasoft PP ?                                      
   IUNSCR =        1    unscreen: 0-lin 1-nonlin 2-no                           
   RPACOR =    2.000    partial core radius                                     
   POMASS =   95.940; ZVAL   =   14.000    mass and valenz                      
   RCORE  =    2.100    outmost cutoff radius                                   
   RWIGS  =    2.100; RWIGS  =    1.111    wigner-seitz radius (au A)           
   ENMAX  =  344.914; ENMIN  =  258.686 eV                                      
   RCLOC  =    1.508    cutoff for local pot                                    
   LCOR   =        T    correct aug charges                                     
   LPAW   =        T    paw PP                                                  
   EAUG   =  964.741                                                            
   DEXC   =    0.000                                                            
   RMAX   =    2.149    core radius for proj-oper                               
   RAUG   =    1.300    factor for augmentation sphere                          
   RDEP   =    2.179    radius for radial grids                                 
   RDEPT  =    1.677    core radius for aug-charge                              
                                                                                
   Atomic configuration                                                         
   12 entries                                                                   
     n  l   j            E        occ.                                          
     1  0  0.50    -19816.9363   2.0000                                         
     2  0  0.50     -2796.7578   2.0000                                         
     2  1  1.50     -2499.7842   6.0000                                         
     3  0  0.50      -474.2095   2.0000                                         
     3  1  1.50      -376.9135   6.0000                                         
     3  2  2.50      -218.6898  10.0000                                         
     4  0  0.50       -62.1983   2.0000                                         
     4  0  0.50       -66.6685   0.0000                                         
     4  1  1.50       -36.4414   6.0000                                         
     4  1  1.50       -40.8175   0.0000                                         
     4  2  2.50        -2.3086   6.0000                                         
     4  3  2.50        -1.3606   0.0000                                         
   Description                                                                  
     l       E           TYP  RCUT    TYP  RCUT                                 
     0    -62.1983072     23  1.950                                             
     0     27.2116520     23  1.950                                             
     0    149.6640860     23  1.950                                             
     1    -36.4413666     23  1.800                                             
     1    -40.8174780     23  1.800                                             
     1     54.4233040     23  1.800                                             
     2     -2.3085597     23  2.000                                             
     2     -6.8029130     23  2.000                                             
     2    136.0582600     23  2.000                                             
     3     13.6058260     23  2.100                                             
     3     81.6349560     23  2.100                                             
  local pseudopotential read in
  partial core-charges read in
  partial kinetic energy density read in
  kinetic energy density of atom read in
  atomic valenz-charges read in
  non local Contribution for L=           0  read in
    real space projection operators read in
  non local Contribution for L=           0  read in
    real space projection operators read in
  non local Contribution for L=           0  read in
    real space projection operators read in
  non local Contribution for L=           1  read in
    real space projection operators read in
  non local Contribution for L=           1  read in
    real space projection operators read in
  non local Contribution for L=           1  read in
    real space projection operators read in
  non local Contribution for L=           2  read in
    real space projection operators read in
  non local Contribution for L=           2  read in
    real space projection operators read in
  non local Contribution for L=           2  read in
    real space projection operators read in
  non local Contribution for L=           3  read in
    real space projection operators read in
  non local Contribution for L=           3  read in
    real space projection operators read in
    PAW grid and wavefunctions read in
 
   number of l-projection  operators is LMAX  =          11
   number of lm-projection operators is LMMAX =          41
 
 POTCAR:    PAW_PBE S_GW 19Mar2012                
   VRHFIN =S : s2p4                                                             
   LEXCH  = PE                                                                  
   EATOM  =   276.8230 eV,   20.3459 Ry                                         
                                                                                
   TITEL  = PAW_PBE S_GW 19Mar2012                                              
   LULTRA =        F    use ultrasoft PP ?                                      
   IUNSCR =        1    unscreen: 0-lin 1-nonlin 2-no                           
   RPACOR =    1.400    partial core radius                                     
   POMASS =   32.066; ZVAL   =    6.000    mass and valenz                      
   RCORE  =    1.900    outmost cutoff radius                                   
   RWIGS  =    1.900; RWIGS  =    1.005    wigner-seitz radius (au A)           
   ENMAX  =  258.689; ENMIN  =  194.016 eV                                      
   ICORE  =        3    local potential                                         
   LCOR   =        T    correct aug charges                                     
   LPAW   =        T    paw PP                                                  
   EAUG   =  488.319                                                            
   DEXC   =    0.000                                                            
   RMAX   =    1.942    core radius for proj-oper                               
   RAUG   =    1.300    factor for augmentation sphere                          
   RDEP   =    1.954    radius for radial grids                                 
   RDEPT  =    1.900    core radius for aug-charge                              
                                                                                
   Atomic configuration                                                         
    7 entries                                                                   
     n  l   j            E        occ.                                          
     1  0  0.50     -2405.8406   2.0000                                         
     2  0  0.50      -211.7007   2.0000                                         
     2  1  1.50      -156.4958   6.0000                                         
     3  0  0.50       -17.2562   2.0000                                         
     3  1  0.50        -7.0085   4.0000                                         
     3  2  1.50        -8.1635   0.0000                                         
     4  3  2.50        -1.3606   0.0000                                         
   Description                                                                  
     l       E           TYP  RCUT    TYP  RCUT                                 
     0    -17.2561639     23  1.700                                             
     0     88.4378690     23  1.900                                             
     1     -7.0085399     23  1.900                                             
     1     88.4378690     23  1.900                                             
     2    -10.8846608     23  1.900                                             
     2     54.4233040     23  1.900                                             
     3     27.2116520     23  1.800                                             
  local pseudopotential read in
  partial core-charges read in
  partial kinetic energy density read in
  kinetic energy density of atom read in
  atomic valenz-charges read in
  non local Contribution for L=           0  read in
    real space projection operators read in
  non local Contribution for L=           0  read in
    real space projection operators read in
  non local Contribution for L=           1  read in
    real space projection operators read in
  non local Contribution for L=           1  read in
    real space projection operators read in
  non local Contribution for L=           2  read in
    real space projection operators read in
  non local Contribution for L=           2  read in
    real space projection operators read in
    PAW grid and wavefunctions read in
 
   number of l-projection  operators is LMAX  =           6
   number of lm-projection operators is LMMAX =          18
 
  PAW_PBE Mo_sv_GW 05Dec2013            :
 energy of atom  1       EATOM=-1861.5185
 kinetic energy error for atom=    0.1105 (will be added to EATOM!!)
  PAW_PBE S_GW 19Mar2012                :
 energy of atom  2       EATOM= -276.8230
 kinetic energy error for atom=    0.0058 (will be added to EATOM!!)
 
 
 POSCAR: Mo  S                                   
  positions in cartesian coordinates
  No initial velocities read in
 exchange correlation table for  LEXCH =        8
   RHO(1)=    0.500       N(1)  =     2000
   RHO(2)=  100.500       N(2)  =     4000
 


--------------------------------------------------------------------------------------------------------


 ion  position               nearest neighbor table
   1  0.167  0.333  0.254-   6 2.41   7 2.41   6 2.41   7 2.41   6 2.41   7 2.41
   2  0.833  0.667  0.377-   8 2.41   9 2.41   8 2.41   9 2.41   8 2.41   9 2.41
   3  0.167  0.333  0.500-  10 2.41  11 2.41  10 2.41  11 2.41  10 2.41  11 2.41
   4  0.833  0.667  0.623-  12 2.41  13 2.41  12 2.41  13 2.41  12 2.41  13 2.41
   5  0.167  0.333  0.746-  14 2.41  15 2.41  14 2.41  15 2.41  14 2.41  15 2.41
   6  0.833  0.667  0.285-   1 2.41   1 2.41   1 2.41
   7  0.833  0.667  0.223-   1 2.41   1 2.41   1 2.41
   8  0.167  0.333  0.408-   2 2.41   2 2.41   2 2.41
   9  0.167  0.333  0.346-   2 2.41   2 2.41   2 2.41
  10  0.833  0.667  0.531-   3 2.41   3 2.41   3 2.41
  11  0.833  0.667  0.469-   3 2.41   3 2.41   3 2.41
  12  0.167  0.333  0.654-   4 2.41   4 2.41   4 2.41
  13  0.167  0.333  0.592-   4 2.41   4 2.41   4 2.41
  14  0.833  0.667  0.777-   5 2.41   5 2.41   5 2.41
  15  0.833  0.667  0.715-   5 2.41   5 2.41   5 2.41
 
  LATTYP: Found a hexagonal cell.
 ALAT       =     3.1840664647
 C/A-ratio  =    15.7031897903
  
  Lattice vectors:
  
 A1 = (   3.1840664647,   0.0000000000,   0.0000000000)
 A2 = (  -1.5920332323,   2.7574824458,   0.0000000000)
 A3 = (   0.0000000000,   0.0000000000,  50.0000000000)


Analysis of symmetry for initial positions (statically):
=====================================================================
 Subroutine PRICEL returns:
 Original cell was already a primitive cell.
 

 Routine SETGRP: Setting up the symmetry group for a 
 hexagonal supercell.


 Subroutine GETGRP returns: Found 12 space group operations
 (whereof  4 operations were pure point group operations)
 out of a pool of 24 trial point group operations.


The static configuration has the point symmetry C_2v.
 The point group associated with its full space group is D_3h.


Analysis of symmetry for dynamics (positions and initial velocities):
=====================================================================
 Subroutine PRICEL returns:
 Original cell was already a primitive cell.
 

 Routine SETGRP: Setting up the symmetry group for a 
 hexagonal supercell.


 Subroutine GETGRP returns: Found 12 space group operations
 (whereof  4 operations were pure point group operations)
 out of a pool of 24 trial point group operations.


The dynamic configuration has the point symmetry C_2v.
 The point group associated with its full space group is D_3h.


 Subroutine INISYM returns: Found 12 space group operations
 (whereof  4 operations are pure point group operations),
 and found     1 'primitive' translations

 
 
 KPOINTS: KPOINTS created by Atomic Simulation Env

Automatic generation of k-mesh.
Space group operators:
 irot       det(A)        alpha          n_x          n_y          n_z        tau_x        tau_y        tau_z
    1     1.000000     0.000000     1.000000     0.000000     0.000000     0.000000     0.000000     0.000000
    2    -1.000000   180.000000     0.000000     0.000000     1.000000     0.000000     0.000000     0.000000
    3    -1.000000   180.000000     1.000000     0.000000     0.000000     0.000000     0.000000     0.000000
    4     1.000000   180.000000     0.000000     1.000000     0.000000     0.000000     0.000000     0.000000
    5    -1.000000    60.000000     0.000000     0.000000    -1.000000     0.000000     0.500000     0.000000
    6     1.000000   120.000000     0.000000     0.000000    -1.000000     0.500000     0.500000     0.000000
    7     1.000000   120.000000     0.000000     0.000000     1.000000     0.000000     0.500000     0.000000
    8    -1.000000    60.000000     0.000000     0.000000     1.000000     0.500000     0.500000     0.000000
    9     1.000000   180.000000     0.866025    -0.500000     0.000000     0.500000     0.500000     0.000000
   10    -1.000000   180.000000     0.500000    -0.866025     0.000000     0.000000     0.500000     0.000000
   11    -1.000000   180.000000    -0.500000    -0.866025     0.000000     0.500000     0.500000     0.000000
   12     1.000000   180.000000     0.866025     0.500000     0.000000     0.000000     0.500000     0.000000
 
 Subroutine IBZKPT returns following result:
 ===========================================
 
 Found     37 irreducible k-points:
 
 Following reciprocal coordinates:
            Coordinates               Weight
  0.000000  0.000000  0.000000      1.000000
  0.055556  0.000000  0.000000      6.000000
  0.111111  0.000000  0.000000      6.000000
  0.166667  0.000000  0.000000      6.000000
  0.222222  0.000000  0.000000      6.000000
  0.277778  0.000000  0.000000      6.000000
  0.333333  0.000000  0.000000      6.000000
  0.388889  0.000000  0.000000      6.000000
  0.444444  0.000000  0.000000      6.000000
  0.500000  0.000000  0.000000      3.000000
  0.055556  0.055556  0.000000      6.000000
  0.111111  0.055556  0.000000     12.000000
  0.166667  0.055556  0.000000     12.000000
  0.222222  0.055556  0.000000     12.000000
  0.277778  0.055556  0.000000     12.000000
  0.333333  0.055556  0.000000     12.000000
  0.388889  0.055556  0.000000     12.000000
  0.444444  0.055556  0.000000     12.000000
  0.111111  0.111111  0.000000      6.000000
  0.166667  0.111111  0.000000     12.000000
  0.222222  0.111111  0.000000     12.000000
  0.277778  0.111111  0.000000     12.000000
  0.333333  0.111111  0.000000     12.000000
  0.388889  0.111111  0.000000     12.000000
  0.444444  0.111111  0.000000      6.000000
  0.166667  0.166667  0.000000      6.000000
  0.222222  0.166667  0.000000     12.000000
  0.277778  0.166667  0.000000     12.000000
  0.333333  0.166667  0.000000     12.000000
  0.388889  0.166667  0.000000     12.000000
  0.222222  0.222222  0.000000      6.000000
  0.277778  0.222222  0.000000     12.000000
  0.333333  0.222222  0.000000     12.000000
  0.388889  0.222222  0.000000      6.000000
  0.277778  0.277778  0.000000      6.000000
  0.333333  0.277778  0.000000     12.000000
  0.333333  0.333333  0.000000      2.000000
 
 Following cartesian coordinates:
            Coordinates               Weight
  0.000000  0.000000  0.000000      1.000000
  0.017448  0.010074  0.000000      6.000000
  0.034896  0.020147  0.000000      6.000000
  0.052344  0.030221  0.000000      6.000000
  0.069792  0.040294  0.000000      6.000000
  0.087240  0.050368  0.000000      6.000000
  0.104688  0.060442  0.000000      6.000000
  0.122136  0.070515  0.000000      6.000000
  0.139584  0.080589  0.000000      6.000000
  0.157032  0.090662  0.000000      3.000000
  0.017448  0.030221  0.000000      6.000000
  0.034896  0.040294  0.000000     12.000000
  0.052344  0.050368  0.000000     12.000000
  0.069792  0.060442  0.000000     12.000000
  0.087240  0.070515  0.000000     12.000000
  0.104688  0.080589  0.000000     12.000000
  0.122136  0.090662  0.000000     12.000000
  0.139584  0.100736  0.000000     12.000000
  0.034896  0.060442  0.000000      6.000000
  0.052344  0.070515  0.000000     12.000000
  0.069792  0.080589  0.000000     12.000000
  0.087240  0.090662  0.000000     12.000000
  0.104688  0.100736  0.000000     12.000000
  0.122136  0.110810  0.000000     12.000000
  0.139584  0.120883  0.000000      6.000000
  0.052344  0.090662  0.000000      6.000000
  0.069792  0.100736  0.000000     12.000000
  0.087240  0.110810  0.000000     12.000000
  0.104688  0.120883  0.000000     12.000000
  0.122136  0.130957  0.000000     12.000000
  0.069792  0.120883  0.000000      6.000000
  0.087240  0.130957  0.000000     12.000000
  0.104688  0.141030  0.000000     12.000000
  0.122136  0.151104  0.000000      6.000000
  0.087240  0.151104  0.000000      6.000000
  0.104688  0.161178  0.000000     12.000000
  0.104688  0.181325  0.000000      2.000000
 
 TETIRR: Found    169 inequivalent tetrahedra from     1944
 
 Subroutine IBZKPT_HF returns following result:
 ==============================================
 
 Found    324 k-points in 1st BZ
 the following    324 k-points will be used (e.g. in the exchange kernel)
 Following reciprocal coordinates:   # in IRBZ
  0.000000  0.000000  0.000000    0.00308642   1 t-inv F
  0.055556  0.000000  0.000000    0.00308642   2 t-inv F
  0.111111  0.000000  0.000000    0.00308642   3 t-inv F
  0.166667  0.000000  0.000000    0.00308642   4 t-inv F
  0.222222  0.000000  0.000000    0.00308642   5 t-inv F
  0.277778  0.000000  0.000000    0.00308642   6 t-inv F
  0.333333  0.000000  0.000000    0.00308642   7 t-inv F
  0.388889  0.000000  0.000000    0.00308642   8 t-inv F
  0.444444  0.000000  0.000000    0.00308642   9 t-inv F
  0.500000  0.000000  0.000000    0.00308642  10 t-inv F
  0.055556  0.055556  0.000000    0.00308642  11 t-inv F
  0.111111  0.055556  0.000000    0.00308642  12 t-inv F
  0.166667  0.055556  0.000000    0.00308642  13 t-inv F
  0.222222  0.055556  0.000000    0.00308642  14 t-inv F
  0.277778  0.055556  0.000000    0.00308642  15 t-inv F
  0.333333  0.055556  0.000000    0.00308642  16 t-inv F
  0.388889  0.055556  0.000000    0.00308642  17 t-inv F
  0.444444  0.055556  0.000000    0.00308642  18 t-inv F
  0.111111  0.111111  0.000000    0.00308642  19 t-inv F
  0.166667  0.111111  0.000000    0.00308642  20 t-inv F
  0.222222  0.111111  0.000000    0.00308642  21 t-inv F
  0.277778  0.111111  0.000000    0.00308642  22 t-inv F
  0.333333  0.111111  0.000000    0.00308642  23 t-inv F
  0.388889  0.111111  0.000000    0.00308642  24 t-inv F
  0.444444  0.111111  0.000000    0.00308642  25 t-inv F
  0.166667  0.166667  0.000000    0.00308642  26 t-inv F
  0.222222  0.166667  0.000000    0.00308642  27 t-inv F
  0.277778  0.166667  0.000000    0.00308642  28 t-inv F
  0.333333  0.166667  0.000000    0.00308642  29 t-inv F
  0.388889  0.166667  0.000000    0.00308642  30 t-inv F
  0.222222  0.222222  0.000000    0.00308642  31 t-inv F
  0.277778  0.222222  0.000000    0.00308642  32 t-inv F
  0.333333  0.222222  0.000000    0.00308642  33 t-inv F
  0.388889  0.222222  0.000000    0.00308642  34 t-inv F
  0.277778  0.277778  0.000000    0.00308642  35 t-inv F
  0.333333  0.277778  0.000000    0.00308642  36 t-inv F
  0.333333  0.333333  0.000000    0.00308642  37 t-inv F
 -0.055556  0.055556  0.000000    0.00308642   2 t-inv F
  0.000000 -0.055556 -0.000000    0.00308642   2 t-inv F
 -0.111111  0.111111  0.000000    0.00308642   3 t-inv F
  0.000000 -0.111111 -0.000000    0.00308642   3 t-inv F
 -0.166667  0.166667  0.000000    0.00308642   4 t-inv F
  0.000000 -0.166667 -0.000000    0.00308642   4 t-inv F
 -0.222222  0.222222  0.000000    0.00308642   5 t-inv F
  0.000000 -0.222222 -0.000000    0.00308642   5 t-inv F
 -0.277778  0.277778  0.000000    0.00308642   6 t-inv F
  0.000000 -0.277778 -0.000000    0.00308642   6 t-inv F
 -0.333333  0.333333  0.000000    0.00308642   7 t-inv F
  0.000000 -0.333333 -0.000000    0.00308642   7 t-inv F
 -0.388889  0.388889  0.000000    0.00308642   8 t-inv F
  0.000000 -0.388889 -0.000000    0.00308642   8 t-inv F
 -0.444444  0.444444  0.000000    0.00308642   9 t-inv F
  0.000000 -0.444444 -0.000000    0.00308642   9 t-inv F
 -0.500000  0.500000  0.000000    0.00308642  10 t-inv F
  0.000000 -0.500000 -0.000000    0.00308642  10 t-inv F
 -0.055556  0.111111  0.000000    0.00308642  11 t-inv F
  0.055556 -0.111111 -0.000000    0.00308642  11 t-inv F
 -0.111111  0.055556  0.000000    0.00308642  11 t-inv F
 -0.055556 -0.055556 -0.000000    0.00308642  11 t-inv F
  0.111111 -0.055556  0.000000    0.00308642  11 t-inv F
 -0.111111  0.166667  0.000000    0.00308642  12 t-inv F
  0.055556 -0.166667 -0.000000    0.00308642  12 t-inv F
 -0.166667  0.111111  0.000000    0.00308642  12 t-inv F
 -0.055556 -0.111111 -0.000000    0.00308642  12 t-inv F
  0.166667 -0.055556  0.000000    0.00308642  12 t-inv F
 -0.166667  0.222222  0.000000    0.00308642  13 t-inv F
  0.055556 -0.222222 -0.000000    0.00308642  13 t-inv F
 -0.222222  0.166667  0.000000    0.00308642  13 t-inv F
 -0.055556 -0.166667 -0.000000    0.00308642  13 t-inv F
  0.222222 -0.055556  0.000000    0.00308642  13 t-inv F
 -0.222222  0.277778  0.000000    0.00308642  14 t-inv F
  0.055556 -0.277778 -0.000000    0.00308642  14 t-inv F
 -0.277778  0.222222  0.000000    0.00308642  14 t-inv F
 -0.055556 -0.222222 -0.000000    0.00308642  14 t-inv F
  0.277778 -0.055556  0.000000    0.00308642  14 t-inv F
 -0.277778  0.333333  0.000000    0.00308642  15 t-inv F
  0.055556 -0.333333 -0.000000    0.00308642  15 t-inv F
 -0.333333  0.277778  0.000000    0.00308642  15 t-inv F
 -0.055556 -0.277778 -0.000000    0.00308642  15 t-inv F
  0.333333 -0.055556  0.000000    0.00308642  15 t-inv F
 -0.333333  0.388889  0.000000    0.00308642  16 t-inv F
  0.055556 -0.388889 -0.000000    0.00308642  16 t-inv F
 -0.388889  0.333333  0.000000    0.00308642  16 t-inv F
 -0.055556 -0.333333 -0.000000    0.00308642  16 t-inv F
  0.388889 -0.055556  0.000000    0.00308642  16 t-inv F
 -0.388889  0.444444  0.000000    0.00308642  17 t-inv F
  0.055556 -0.444444 -0.000000    0.00308642  17 t-inv F
 -0.444444  0.388889  0.000000    0.00308642  17 t-inv F
 -0.055556 -0.388889 -0.000000    0.00308642  17 t-inv F
  0.444444 -0.055556  0.000000    0.00308642  17 t-inv F
 -0.444444  0.500000  0.000000    0.00308642  18 t-inv F
  0.055556 -0.500000 -0.000000    0.00308642  18 t-inv F
 -0.500000  0.444444  0.000000    0.00308642  18 t-inv F
 -0.055556 -0.444444 -0.000000    0.00308642  18 t-inv F
  0.500000 -0.055556  0.000000    0.00308642  18 t-inv F
 -0.111111  0.222222  0.000000    0.00308642  19 t-inv F
  0.111111 -0.222222 -0.000000    0.00308642  19 t-inv F
 -0.222222  0.111111  0.000000    0.00308642  19 t-inv F
 -0.111111 -0.111111 -0.000000    0.00308642  19 t-inv F
  0.222222 -0.111111  0.000000    0.00308642  19 t-inv F
 -0.166667  0.277778  0.000000    0.00308642  20 t-inv F
  0.111111 -0.277778 -0.000000    0.00308642  20 t-inv F
 -0.277778  0.166667  0.000000    0.00308642  20 t-inv F
 -0.111111 -0.166667 -0.000000    0.00308642  20 t-inv F
  0.277778 -0.111111  0.000000    0.00308642  20 t-inv F
 -0.222222  0.333333  0.000000    0.00308642  21 t-inv F
  0.111111 -0.333333 -0.000000    0.00308642  21 t-inv F
 -0.333333  0.222222  0.000000    0.00308642  21 t-inv F
 -0.111111 -0.222222 -0.000000    0.00308642  21 t-inv F
  0.333333 -0.111111  0.000000    0.00308642  21 t-inv F
 -0.277778  0.388889  0.000000    0.00308642  22 t-inv F
  0.111111 -0.388889 -0.000000    0.00308642  22 t-inv F
 -0.388889  0.277778  0.000000    0.00308642  22 t-inv F
 -0.111111 -0.277778 -0.000000    0.00308642  22 t-inv F
  0.388889 -0.111111  0.000000    0.00308642  22 t-inv F
 -0.333333  0.444444  0.000000    0.00308642  23 t-inv F
  0.111111 -0.444444 -0.000000    0.00308642  23 t-inv F
 -0.444444  0.333333  0.000000    0.00308642  23 t-inv F
 -0.111111 -0.333333 -0.000000    0.00308642  23 t-inv F
  0.444444 -0.111111  0.000000    0.00308642  23 t-inv F
 -0.388889  0.500000  0.000000    0.00308642  24 t-inv F
  0.111111 -0.500000 -0.000000    0.00308642  24 t-inv F
 -0.500000  0.388889  0.000000    0.00308642  24 t-inv F
 -0.111111 -0.388889 -0.000000    0.00308642  24 t-inv F
  0.500000 -0.111111  0.000000    0.00308642  24 t-inv F
 -0.444444  0.555556  0.000000    0.00308642  25 t-inv F
  0.111111 -0.555556 -0.000000    0.00308642  25 t-inv F
 -0.555556  0.444444  0.000000    0.00308642  25 t-inv F
 -0.111111 -0.444444 -0.000000    0.00308642  25 t-inv F
  0.555556 -0.111111  0.000000    0.00308642  25 t-inv F
 -0.166667  0.333333  0.000000    0.00308642  26 t-inv F
  0.166667 -0.333333 -0.000000    0.00308642  26 t-inv F
 -0.333333  0.166667  0.000000    0.00308642  26 t-inv F
 -0.166667 -0.166667 -0.000000    0.00308642  26 t-inv F
  0.333333 -0.166667  0.000000    0.00308642  26 t-inv F
 -0.222222  0.388889  0.000000    0.00308642  27 t-inv F
  0.166667 -0.388889 -0.000000    0.00308642  27 t-inv F
 -0.388889  0.222222  0.000000    0.00308642  27 t-inv F
 -0.166667 -0.222222 -0.000000    0.00308642  27 t-inv F
  0.388889 -0.166667  0.000000    0.00308642  27 t-inv F
 -0.277778  0.444444  0.000000    0.00308642  28 t-inv F
  0.166667 -0.444444 -0.000000    0.00308642  28 t-inv F
 -0.444444  0.277778  0.000000    0.00308642  28 t-inv F
 -0.166667 -0.277778 -0.000000    0.00308642  28 t-inv F
  0.444444 -0.166667  0.000000    0.00308642  28 t-inv F
 -0.333333  0.500000  0.000000    0.00308642  29 t-inv F
  0.166667 -0.500000 -0.000000    0.00308642  29 t-inv F
 -0.500000  0.333333  0.000000    0.00308642  29 t-inv F
 -0.166667 -0.333333 -0.000000    0.00308642  29 t-inv F
  0.500000 -0.166667  0.000000    0.00308642  29 t-inv F
 -0.388889  0.555556  0.000000    0.00308642  30 t-inv F
  0.166667 -0.555556 -0.000000    0.00308642  30 t-inv F
 -0.555556  0.388889  0.000000    0.00308642  30 t-inv F
 -0.166667 -0.388889 -0.000000    0.00308642  30 t-inv F
  0.555556 -0.166667  0.000000    0.00308642  30 t-inv F
 -0.222222  0.444444  0.000000    0.00308642  31 t-inv F
  0.222222 -0.444444 -0.000000    0.00308642  31 t-inv F
 -0.444444  0.222222  0.000000    0.00308642  31 t-inv F
 -0.222222 -0.222222 -0.000000    0.00308642  31 t-inv F
  0.444444 -0.222222  0.000000    0.00308642  31 t-inv F
 -0.277778  0.500000  0.000000    0.00308642  32 t-inv F
  0.222222 -0.500000 -0.000000    0.00308642  32 t-inv F
 -0.500000  0.277778  0.000000    0.00308642  32 t-inv F
 -0.222222 -0.277778 -0.000000    0.00308642  32 t-inv F
  0.500000 -0.222222  0.000000    0.00308642  32 t-inv F
 -0.333333  0.555556  0.000000    0.00308642  33 t-inv F
  0.222222 -0.555556 -0.000000    0.00308642  33 t-inv F
 -0.555556  0.333333  0.000000    0.00308642  33 t-inv F
 -0.222222 -0.333333 -0.000000    0.00308642  33 t-inv F
  0.555556 -0.222222  0.000000    0.00308642  33 t-inv F
 -0.388889  0.611111  0.000000    0.00308642  34 t-inv F
  0.222222 -0.611111 -0.000000    0.00308642  34 t-inv F
 -0.611111  0.388889  0.000000    0.00308642  34 t-inv F
 -0.222222 -0.388889 -0.000000    0.00308642  34 t-inv F
  0.611111 -0.222222  0.000000    0.00308642  34 t-inv F
 -0.277778  0.555556  0.000000    0.00308642  35 t-inv F
  0.277778 -0.555556 -0.000000    0.00308642  35 t-inv F
 -0.555556  0.277778  0.000000    0.00308642  35 t-inv F
 -0.277778 -0.277778 -0.000000    0.00308642  35 t-inv F
  0.555556 -0.277778  0.000000    0.00308642  35 t-inv F
 -0.333333  0.611111  0.000000    0.00308642  36 t-inv F
  0.277778 -0.611111 -0.000000    0.00308642  36 t-inv F
 -0.611111  0.333333  0.000000    0.00308642  36 t-inv F
 -0.277778 -0.333333 -0.000000    0.00308642  36 t-inv F
  0.611111 -0.277778  0.000000    0.00308642  36 t-inv F
 -0.333333  0.666667  0.000000    0.00308642  37 t-inv F
 -0.055556 -0.000000 -0.000000    0.00308642   2 t-inv T
  0.055556 -0.055556 -0.000000    0.00308642   2 t-inv T
 -0.000000  0.055556  0.000000    0.00308642   2 t-inv T
 -0.111111 -0.000000 -0.000000    0.00308642   3 t-inv T
  0.111111 -0.111111 -0.000000    0.00308642   3 t-inv T
 -0.000000  0.111111  0.000000    0.00308642   3 t-inv T
 -0.166667 -0.000000 -0.000000    0.00308642   4 t-inv T
  0.166667 -0.166667 -0.000000    0.00308642   4 t-inv T
 -0.000000  0.166667  0.000000    0.00308642   4 t-inv T
 -0.222222 -0.000000 -0.000000    0.00308642   5 t-inv T
  0.222222 -0.222222 -0.000000    0.00308642   5 t-inv T
 -0.000000  0.222222  0.000000    0.00308642   5 t-inv T
 -0.277778 -0.000000 -0.000000    0.00308642   6 t-inv T
  0.277778 -0.277778 -0.000000    0.00308642   6 t-inv T
 -0.000000  0.277778  0.000000    0.00308642   6 t-inv T
 -0.333333 -0.000000 -0.000000    0.00308642   7 t-inv T
  0.333333 -0.333333 -0.000000    0.00308642   7 t-inv T
 -0.000000  0.333333  0.000000    0.00308642   7 t-inv T
 -0.388889 -0.000000 -0.000000    0.00308642   8 t-inv T
  0.388889 -0.388889 -0.000000    0.00308642   8 t-inv T
 -0.000000  0.388889  0.000000    0.00308642   8 t-inv T
 -0.444444 -0.000000 -0.000000    0.00308642   9 t-inv T
  0.444444 -0.444444 -0.000000    0.00308642   9 t-inv T
 -0.000000  0.444444  0.000000    0.00308642   9 t-inv T
 -0.111111 -0.055556 -0.000000    0.00308642  12 t-inv T
  0.111111 -0.166667 -0.000000    0.00308642  12 t-inv T
 -0.055556  0.166667  0.000000    0.00308642  12 t-inv T
  0.166667 -0.111111 -0.000000    0.00308642  12 t-inv T
  0.055556  0.111111  0.000000    0.00308642  12 t-inv T
 -0.166667  0.055556 -0.000000    0.00308642  12 t-inv T
 -0.166667 -0.055556 -0.000000    0.00308642  13 t-inv T
  0.166667 -0.222222 -0.000000    0.00308642  13 t-inv T
 -0.055556  0.222222  0.000000    0.00308642  13 t-inv T
  0.222222 -0.166667 -0.000000    0.00308642  13 t-inv T
  0.055556  0.166667  0.000000    0.00308642  13 t-inv T
 -0.222222  0.055556 -0.000000    0.00308642  13 t-inv T
 -0.222222 -0.055556 -0.000000    0.00308642  14 t-inv T
  0.222222 -0.277778 -0.000000    0.00308642  14 t-inv T
 -0.055556  0.277778  0.000000    0.00308642  14 t-inv T
  0.277778 -0.222222 -0.000000    0.00308642  14 t-inv T
  0.055556  0.222222  0.000000    0.00308642  14 t-inv T
 -0.277778  0.055556 -0.000000    0.00308642  14 t-inv T
 -0.277778 -0.055556 -0.000000    0.00308642  15 t-inv T
  0.277778 -0.333333 -0.000000    0.00308642  15 t-inv T
 -0.055556  0.333333  0.000000    0.00308642  15 t-inv T
  0.333333 -0.277778 -0.000000    0.00308642  15 t-inv T
  0.055556  0.277778  0.000000    0.00308642  15 t-inv T
 -0.333333  0.055556 -0.000000    0.00308642  15 t-inv T
 -0.333333 -0.055556 -0.000000    0.00308642  16 t-inv T
  0.333333 -0.388889 -0.000000    0.00308642  16 t-inv T
 -0.055556  0.388889  0.000000    0.00308642  16 t-inv T
  0.388889 -0.333333 -0.000000    0.00308642  16 t-inv T
  0.055556  0.333333  0.000000    0.00308642  16 t-inv T
 -0.388889  0.055556 -0.000000    0.00308642  16 t-inv T
 -0.388889 -0.055556 -0.000000    0.00308642  17 t-inv T
  0.388889 -0.444444 -0.000000    0.00308642  17 t-inv T
 -0.055556  0.444444  0.000000    0.00308642  17 t-inv T
  0.444444 -0.388889 -0.000000    0.00308642  17 t-inv T
  0.055556  0.388889  0.000000    0.00308642  17 t-inv T
 -0.444444  0.055556 -0.000000    0.00308642  17 t-inv T
 -0.444444 -0.055556 -0.000000    0.00308642  18 t-inv T
  0.444444 -0.500000 -0.000000    0.00308642  18 t-inv T
 -0.055556  0.500000  0.000000    0.00308642  18 t-inv T
  0.500000 -0.444444 -0.000000    0.00308642  18 t-inv T
  0.055556  0.444444  0.000000    0.00308642  18 t-inv T
 -0.500000  0.055556 -0.000000    0.00308642  18 t-inv T
 -0.166667 -0.111111 -0.000000    0.00308642  20 t-inv T
  0.166667 -0.277778 -0.000000    0.00308642  20 t-inv T
 -0.111111  0.277778  0.000000    0.00308642  20 t-inv T
  0.277778 -0.166667 -0.000000    0.00308642  20 t-inv T
  0.111111  0.166667  0.000000    0.00308642  20 t-inv T
 -0.277778  0.111111 -0.000000    0.00308642  20 t-inv T
 -0.222222 -0.111111 -0.000000    0.00308642  21 t-inv T
  0.222222 -0.333333 -0.000000    0.00308642  21 t-inv T
 -0.111111  0.333333  0.000000    0.00308642  21 t-inv T
  0.333333 -0.222222 -0.000000    0.00308642  21 t-inv T
  0.111111  0.222222  0.000000    0.00308642  21 t-inv T
 -0.333333  0.111111 -0.000000    0.00308642  21 t-inv T
 -0.277778 -0.111111 -0.000000    0.00308642  22 t-inv T
  0.277778 -0.388889 -0.000000    0.00308642  22 t-inv T
 -0.111111  0.388889  0.000000    0.00308642  22 t-inv T
  0.388889 -0.277778 -0.000000    0.00308642  22 t-inv T
  0.111111  0.277778  0.000000    0.00308642  22 t-inv T
 -0.388889  0.111111 -0.000000    0.00308642  22 t-inv T
 -0.333333 -0.111111 -0.000000    0.00308642  23 t-inv T
  0.333333 -0.444444 -0.000000    0.00308642  23 t-inv T
 -0.111111  0.444444  0.000000    0.00308642  23 t-inv T
  0.444444 -0.333333 -0.000000    0.00308642  23 t-inv T
  0.111111  0.333333  0.000000    0.00308642  23 t-inv T
 -0.444444  0.111111 -0.000000    0.00308642  23 t-inv T
 -0.388889 -0.111111 -0.000000    0.00308642  24 t-inv T
  0.388889 -0.500000 -0.000000    0.00308642  24 t-inv T
 -0.111111  0.500000  0.000000    0.00308642  24 t-inv T
  0.500000 -0.388889 -0.000000    0.00308642  24 t-inv T
  0.111111  0.388889  0.000000    0.00308642  24 t-inv T
 -0.500000  0.111111 -0.000000    0.00308642  24 t-inv T
 -0.222222 -0.166667 -0.000000    0.00308642  27 t-inv T
  0.222222 -0.388889 -0.000000    0.00308642  27 t-inv T
 -0.166667  0.388889  0.000000    0.00308642  27 t-inv T
  0.388889 -0.222222 -0.000000    0.00308642  27 t-inv T
  0.166667  0.222222  0.000000    0.00308642  27 t-inv T
 -0.388889  0.166667 -0.000000    0.00308642  27 t-inv T
 -0.277778 -0.166667 -0.000000    0.00308642  28 t-inv T
  0.277778 -0.444444 -0.000000    0.00308642  28 t-inv T
 -0.166667  0.444444  0.000000    0.00308642  28 t-inv T
  0.444444 -0.277778 -0.000000    0.00308642  28 t-inv T
  0.166667  0.277778  0.000000    0.00308642  28 t-inv T
 -0.444444  0.166667 -0.000000    0.00308642  28 t-inv T
 -0.333333 -0.166667 -0.000000    0.00308642  29 t-inv T
  0.333333 -0.500000 -0.000000    0.00308642  29 t-inv T
 -0.166667  0.500000  0.000000    0.00308642  29 t-inv T
  0.500000 -0.333333 -0.000000    0.00308642  29 t-inv T
  0.166667  0.333333  0.000000    0.00308642  29 t-inv T
 -0.500000  0.166667 -0.000000    0.00308642  29 t-inv T
 -0.388889 -0.166667 -0.000000    0.00308642  30 t-inv T
  0.388889 -0.555556 -0.000000    0.00308642  30 t-inv T
 -0.166667  0.555556  0.000000    0.00308642  30 t-inv T
  0.555556 -0.388889 -0.000000    0.00308642  30 t-inv T
  0.166667  0.388889  0.000000    0.00308642  30 t-inv T
 -0.555556  0.166667 -0.000000    0.00308642  30 t-inv T
 -0.277778 -0.222222 -0.000000    0.00308642  32 t-inv T
  0.277778 -0.500000 -0.000000    0.00308642  32 t-inv T
 -0.222222  0.500000  0.000000    0.00308642  32 t-inv T
  0.500000 -0.277778 -0.000000    0.00308642  32 t-inv T
  0.222222  0.277778  0.000000    0.00308642  32 t-inv T
 -0.500000  0.222222 -0.000000    0.00308642  32 t-inv T
 -0.333333 -0.222222 -0.000000    0.00308642  33 t-inv T
  0.333333 -0.555556 -0.000000    0.00308642  33 t-inv T
 -0.222222  0.555556  0.000000    0.00308642  33 t-inv T
  0.555556 -0.333333 -0.000000    0.00308642  33 t-inv T
  0.222222  0.333333  0.000000    0.00308642  33 t-inv T
 -0.555556  0.222222 -0.000000    0.00308642  33 t-inv T
 -0.333333 -0.277778 -0.000000    0.00308642  36 t-inv T
  0.333333 -0.611111 -0.000000    0.00308642  36 t-inv T
 -0.277778  0.611111  0.000000    0.00308642  36 t-inv T
  0.611111 -0.333333 -0.000000    0.00308642  36 t-inv T
  0.277778  0.333333  0.000000    0.00308642  36 t-inv T
 -0.611111  0.277778 -0.000000    0.00308642  36 t-inv T


--------------------------------------------------------------------------------------------------------




 Dimension of arrays:
   k-points           NKPTS =     37   k-points in BZ     NKDIM =     37   number of bands    NBANDS=     84
   number of dos      NEDOS =    301   number of ions     NIONS =     15
   non local maximal  LDIM  =     11   non local SUM 2l+1 LMDIM =     41
   total plane-waves  NPLWV = 128000
   max r-space proj   IRMAX =      1   max aug-charges    IRDMAX=  11329
   dimension x,y,z NGX =    20 NGY =   20 NGZ =  320
   dimension x,y,z NGXF=    40 NGYF=   40 NGZF=  640
   support grid    NGXF=    40 NGYF=   40 NGZF=  640
   ions per type =               5  10
 NGX,Y,Z   is equivalent  to a cutoff of  10.44, 10.44, 10.64 a.u.
 NGXF,Y,Z  is equivalent  to a cutoff of  20.88, 20.88, 21.28 a.u.


 I would recommend the setting:
   dimension x,y,z NGX =    19 NGY =   19 NGZ =  303
 SYSTEM =  unknown system                          
 POSCAR =  Mo  S                                   

 Startparameter for this run:
   NWRITE =      2    write-flag & timer
   PREC   = accura    normal or accurate (medium, high low for compatibility)
   ISTART =      0    job   : 0-new  1-cont  2-samecut
   ICHARG =      2    charge: 1-file 2-atom 10-const
   ISPIN  =      1    spin polarized calculation?
   LNONCOLLINEAR =      F non collinear calculations
   LSORBIT =      F    spin-orbit coupling
   INIWAV =      1    electr: 0-lowe 1-rand  2-diag
   LASPH  =      F    aspherical Exc in radial PAW
   METAGGA=      F    non-selfconsistent MetaGGA calc.

 Electronic Relaxation 1
   ENCUT  =  344.9 eV  25.35 Ry    5.03 a.u.   4.82  4.82 75.72*2*pi/ulx,y,z
   ENINI  =  344.9     initial cutoff
   ENAUG  =  964.7 eV  augmentation charge cutoff
   NELM   =     60;   NELMIN=  5; NELMDL= -5     # of ELM steps 
   EDIFF  = 0.1E-07   stopping-criterion for ELM
   LREAL  =      F    real-space projection
   NLSPLINE    = F    spline interpolate recip. space projectors
   LCOMPAT=      F    compatible to vasp.4.4
   GGA_COMPAT  = T    GGA compatible to vasp.4.4-vasp.4.6
   LMAXPAW     = -100 max onsite density
   LMAXMIX     =    2 max onsite mixed and CHGCAR
   VOSKOWN=      0    Vosko Wilk Nusair interpolation
   ROPT   =    0.00000   0.00000
 Ionic relaxation
   EDIFFG = 0.1E-06   stopping-criterion for IOM
   NSW    =      0    number of steps for IOM
   NBLOCK =      1;   KBLOCK =      1    inner block; outer block 
   IBRION =     -1    ionic relax: 0-MD 1-quasi-New 2-CG
   NFREE  =      0    steps in history (QN), initial steepest desc. (CG)
   ISIF   =      2    stress and relaxation
   IWAVPR =     10    prediction:  0-non 1-charg 2-wave 3-comb
   ISYM   =      2    0-nonsym 1-usesym 2-fastsym
   LCORR  =      T    Harris-Foulkes like correction to forces

   POTIM  = 0.5000    time-step for ionic-motion
   TEIN   =    0.0    initial temperature
   TEBEG  =    0.0;   TEEND  =   0.0 temperature during run
   SMASS  =  -3.00    Nose mass-parameter (am)
   estimated Nose-frequenzy (Omega)   =  0.10E-29 period in steps =****** mass=  -0.232E-27a.u.
   SCALEE = 1.0000    scale energy and forces
   NPACO  =    256;   APACO  = 16.0  distance and # of slots for P.C.
   PSTRESS=    0.0 pullay stress

  Mass of Ions in am
   POMASS =  95.94 32.07
  Ionic Valenz
   ZVAL   =  14.00  6.00
  Atomic Wigner-Seitz radii
   RWIGS  =  -1.00 -1.00
  virtual crystal weights 
   VCA    =   1.00  1.00
   NELECT =     130.0000    total number of electrons
   NUPDOWN=      -1.0000    fix difference up-down

 DOS related values:
   EMIN   =  10.00;   EMAX   =-10.00  energy-range for DOS
   EFERMI =   0.00
   ISMEAR =    -5;   SIGMA  =   0.01  broadening in eV -4-tet -1-fermi 0-gaus

 Electronic relaxation 2 (details)
   IALGO  =     38    algorithm
   LDIAG  =      T    sub-space diagonalisation (order eigenvalues)
   LSUBROT=      F    optimize rotation matrix (better conditioning)
   TURBO    =      0    0=normal 1=particle mesh
   IRESTART =      0    0=no restart 2=restart with 2 vectors
   NREBOOT  =      0    no. of reboots
   NMIN     =      0    reboot dimension
   EREF     =   0.00    reference energy to select bands
   IMIX   =      4    mixing-type and parameters
     AMIX     =   0.40;   BMIX     =  1.00
     AMIX_MAG =   1.60;   BMIX_MAG =  1.00
     AMIN     =   0.10
     WC   =   100.;   INIMIX=   1;  MIXPRE=   1;  MAXMIX= -45

 Intra band minimization:
   WEIMIN = 0.0000     energy-eigenvalue tresh-hold
   EBREAK =  0.30E-10  absolut break condition
   DEPER  =   0.30     relativ break condition  

   TIME   =   0.40     timestep for ELM

  volume/ion in A,a.u.               =      29.27       197.50
  Fermi-wavevector in a.u.,A,eV,Ry     =   1.091192  2.062053 16.200443  1.190699
  Thomas-Fermi vector in A             =   2.227432
 
 Write flags
   LWAVE  =      T    write WAVECAR
   LCHARG =      T    write CHGCAR
   LVTOT  =      F    write LOCPOT, total local potential
   LVHAR  =      F    write LOCPOT, Hartree potential only
   LELF   =      F    write electronic localiz. function (ELF)
   LORBIT =      0    0 simple, 1 ext, 2 COOP (PROOUT)


 Dipole corrections
   LMONO  =      F    monopole corrections only (constant potential shift)
   LDIPOL =      F    correct potential (dipole corrections)
   IDIPOL =      0    1-x, 2-y, 3-z, 4-all directions 
   EPSILON=  1.0000000 bulk dielectric constant

 Exchange correlation treatment:
   GGA     =    PE    GGA type
   LEXCH   =     8    internal setting for exchange type
   VOSKOWN=      0    Vosko Wilk Nusair interpolation
   LHFCALC =     F    Hartree Fock is set to
   LHFONE  =     F    Hartree Fock one center treatment
   AEXX    =    0.0000 exact exchange contribution

 Linear response parameters
   LEPSILON=     T    determine dielectric tensor
   LRPA    =     F    only Hartree local field effects (RPA)
   LNABLA  =     F    use nabla operator in PAW spheres
   LVEL    =     F    velocity operator in full k-point grid
   LINTERFAST=   F  fast interpolation
   KINTER  =     0    interpolate to denser k-point grid
   CSHIFT  =0.1000    complex shift for real part using Kramers Kronig
   OMEGAMAX=  -1.0    maximum frequency
   DEG_THRESHOLD= 0.2000000E-02 threshold for treating states as degnerate
   RTIME   =    0.100 relaxation time in fs

 Orbital magnetization related:
   ORBITALMAG=     F  switch on orbital magnetization
   LCHIMAG   =     F  perturbation theory with respect to B field
   DQ        =  0.001000  dq finite difference perturbation B field



--------------------------------------------------------------------------------------------------------


 Static calculation
 charge density and potential will be updated during run
 non-spin polarized calculation
 Variant of blocked Davidson
 Davidson routine will perform the subspace rotation
 perform sub-space diagonalisation
    after iterative eigenvector-optimisation
 modified Broyden-mixing scheme, WC =      100.0
 initial mixing is a Kerker type mixing with AMIX =  0.4000 and BMIX =      1.0000
 Hartree-type preconditioning will be used
 using additional bands           19
 reciprocal scheme for non local part
 use partial core corrections
 calculate Harris-corrections to forces 
   (improved forces if not selfconsistent)
 use gradient corrections 
 use of overlap-Matrix (Vanderbilt PP)
 Fermi weights with tetrahedron method with Bloechl corrections


--------------------------------------------------------------------------------------------------------


  energy-cutoff  :      344.91
  volume of cell :      439.00
      direct lattice vectors                 reciprocal lattice vectors
     3.184066465  0.000000000  0.000000000     0.314063796  0.181324817  0.000000000
    -1.592033232  2.757482446  0.000000000     0.000000000  0.362649634  0.000000000
     0.000000000  0.000000000 50.000000000     0.000000000  0.000000000  0.020000000

  length of vectors
     3.184066465  3.184066465 50.000000000     0.362649634  0.362649634  0.020000000


 
 k-points in units of 2pi/SCALE and weight: KPOINTS created by Atomic Simulation Env
   0.00000000  0.00000000  0.00000000       0.003
   0.01744799  0.01007360  0.00000000       0.019
   0.03489598  0.02014720  0.00000000       0.019
   0.05234397  0.03022080  0.00000000       0.019
   0.06979195  0.04029440  0.00000000       0.019
   0.08723994  0.05036800  0.00000000       0.019
   0.10468793  0.06044161  0.00000000       0.019
   0.12213592  0.07051521  0.00000000       0.019
   0.13958391  0.08058881  0.00000000       0.019
   0.15703190  0.09066241  0.00000000       0.009
   0.01744799  0.03022080  0.00000000       0.019
   0.03489598  0.04029440  0.00000000       0.037
   0.05234397  0.05036800  0.00000000       0.037
   0.06979195  0.06044161  0.00000000       0.037
   0.08723994  0.07051521  0.00000000       0.037
   0.10468793  0.08058881  0.00000000       0.037
   0.12213592  0.09066241  0.00000000       0.037
   0.13958391  0.10073601  0.00000000       0.037
   0.03489598  0.06044161  0.00000000       0.019
   0.05234397  0.07051521  0.00000000       0.037
   0.06979195  0.08058881  0.00000000       0.037
   0.08723994  0.09066241  0.00000000       0.037
   0.10468793  0.10073601  0.00000000       0.037
   0.12213592  0.11080961  0.00000000       0.037
   0.13958391  0.12088321  0.00000000       0.019
   0.05234397  0.09066241  0.00000000       0.019
   0.06979195  0.10073601  0.00000000       0.037
   0.08723994  0.11080961  0.00000000       0.037
   0.10468793  0.12088321  0.00000000       0.037
   0.12213592  0.13095681  0.00000000       0.037
   0.06979195  0.12088321  0.00000000       0.019
   0.08723994  0.13095681  0.00000000       0.037
   0.10468793  0.14103041  0.00000000       0.037
   0.12213592  0.15110401  0.00000000       0.019
   0.08723994  0.15110401  0.00000000       0.019
   0.10468793  0.16117762  0.00000000       0.037
   0.10468793  0.18132482  0.00000000       0.006
 
 k-points in reciprocal lattice and weights: KPOINTS created by Atomic Simulation Env
   0.00000000  0.00000000  0.00000000       0.003
   0.05555556  0.00000000  0.00000000       0.019
   0.11111111  0.00000000  0.00000000       0.019
   0.16666667  0.00000000  0.00000000       0.019
   0.22222222  0.00000000  0.00000000       0.019
   0.27777778  0.00000000  0.00000000       0.019
   0.33333333  0.00000000  0.00000000       0.019
   0.38888889  0.00000000  0.00000000       0.019
   0.44444444  0.00000000  0.00000000       0.019
   0.50000000  0.00000000  0.00000000       0.009
   0.05555556  0.05555556  0.00000000       0.019
   0.11111111  0.05555556  0.00000000       0.037
   0.16666667  0.05555556  0.00000000       0.037
   0.22222222  0.05555556  0.00000000       0.037
   0.27777778  0.05555556  0.00000000       0.037
   0.33333333  0.05555556  0.00000000       0.037
   0.38888889  0.05555556  0.00000000       0.037
   0.44444444  0.05555556  0.00000000       0.037
   0.11111111  0.11111111  0.00000000       0.019
   0.16666667  0.11111111  0.00000000       0.037
   0.22222222  0.11111111  0.00000000       0.037
   0.27777778  0.11111111  0.00000000       0.037
   0.33333333  0.11111111  0.00000000       0.037
   0.38888889  0.11111111  0.00000000       0.037
   0.44444444  0.11111111  0.00000000       0.019
   0.16666667  0.16666667  0.00000000       0.019
   0.22222222  0.16666667  0.00000000       0.037
   0.27777778  0.16666667  0.00000000       0.037
   0.33333333  0.16666667  0.00000000       0.037
   0.38888889  0.16666667  0.00000000       0.037
   0.22222222  0.22222222  0.00000000       0.019
   0.27777778  0.22222222  0.00000000       0.037
   0.33333333  0.22222222  0.00000000       0.037
   0.38888889  0.22222222  0.00000000       0.019
   0.27777778  0.27777778  0.00000000       0.019
   0.33333333  0.27777778  0.00000000       0.037
   0.33333333  0.33333333  0.00000000       0.006
 
 position of ions in fractional coordinates (direct lattice) 
   0.16666667  0.33333333  0.25400000
   0.83333333  0.66666667  0.37700000
   0.16666667  0.33333333  0.50000000
   0.83333333  0.66666667  0.62300000
   0.16666667  0.33333333  0.74600000
   0.83333333  0.66666667  0.28527113
   0.83333333  0.66666667  0.22272887
   0.16666667  0.33333333  0.40827113
   0.16666667  0.33333333  0.34572887
   0.83333333  0.66666667  0.53127113
   0.83333333  0.66666667  0.46872887
   0.16666667  0.33333333  0.65427113
   0.16666667  0.33333333  0.59172887
   0.83333333  0.66666667  0.77727113
   0.83333333  0.66666667  0.71472887
 
 position of ions in cartesian coordinates  (Angst):
  -0.00000000  0.91916082 12.70000000
   1.59203323  1.83832163 18.85000000
  -0.00000000  0.91916082 25.00000000
   1.59203323  1.83832163 31.15000000
  -0.00000000  0.91916082 37.30000000
   1.59203323  1.83832163 14.26355632
   1.59203323  1.83832163 11.13644368
  -0.00000000  0.91916082 20.41355632
  -0.00000000  0.91916082 17.28644368
   1.59203323  1.83832163 26.56355632
   1.59203323  1.83832163 23.43644368
  -0.00000000  0.91916082 32.71355632
  -0.00000000  0.91916082 29.58644368
   1.59203323  1.83832163 38.86355632
   1.59203323  1.83832163 35.73644368
 


--------------------------------------------------------------------------------------------------------


 k-point  1 :   0.0000 0.0000 0.0000  plane waves:    6379
 k-point  2 :   0.0556 0.0000 0.0000  plane waves:    6371
 k-point  3 :   0.1111 0.0000 0.0000  plane waves:    6357
 k-point  4 :   0.1667 0.0000 0.0000  plane waves:    6343
 k-point  5 :   0.2222 0.0000 0.0000  plane waves:    6348
 k-point  6 :   0.2778 0.0000 0.0000  plane waves:    6382
 k-point  7 :   0.3333 0.0000 0.0000  plane waves:    6374
 k-point  8 :   0.3889 0.0000 0.0000  plane waves:    6386
 k-point  9 :   0.4444 0.0000 0.0000  plane waves:    6428
 k-point 10 :   0.5000 0.0000 0.0000  plane waves:    6428
 k-point 11 :   0.0556 0.0556 0.0000  plane waves:    6371
 k-point 12 :   0.1111 0.0556 0.0000  plane waves:    6351
 k-point 13 :   0.1667 0.0556 0.0000  plane waves:    6336
 k-point 14 :   0.2222 0.0556 0.0000  plane waves:    6361
 k-point 15 :   0.2778 0.0556 0.0000  plane waves:    6389
 k-point 16 :   0.3333 0.0556 0.0000  plane waves:    6385
 k-point 17 :   0.3889 0.0556 0.0000  plane waves:    6391
 k-point 18 :   0.4444 0.0556 0.0000  plane waves:    6418
 k-point 19 :   0.1111 0.1111 0.0000  plane waves:    6345
 k-point 20 :   0.1667 0.1111 0.0000  plane waves:    6341
 k-point 21 :   0.2222 0.1111 0.0000  plane waves:    6378
 k-point 22 :   0.2778 0.1111 0.0000  plane waves:    6385
 k-point 23 :   0.3333 0.1111 0.0000  plane waves:    6389
 k-point 24 :   0.3889 0.1111 0.0000  plane waves:    6407
 k-point 25 :   0.4444 0.1111 0.0000  plane waves:    6404
 k-point 26 :   0.1667 0.1667 0.0000  plane waves:    6345
 k-point 27 :   0.2222 0.1667 0.0000  plane waves:    6372
 k-point 28 :   0.2778 0.1667 0.0000  plane waves:    6381
 k-point 29 :   0.3333 0.1667 0.0000  plane waves:    6400
 k-point 30 :   0.3889 0.1667 0.0000  plane waves:    6418
 k-point 31 :   0.2222 0.2222 0.0000  plane waves:    6397
 k-point 32 :   0.2778 0.2222 0.0000  plane waves:    6386
 k-point 33 :   0.3333 0.2222 0.0000  plane waves:    6422
 k-point 34 :   0.3889 0.2222 0.0000  plane waves:    6455
 k-point 35 :   0.2778 0.2778 0.0000  plane waves:    6407
 k-point 36 :   0.3333 0.2778 0.0000  plane waves:    6434
 k-point 37 :   0.3333 0.3333 0.0000  plane waves:    6429

 maximum and minimum number of plane-waves per node :      6455     6336

 maximum number of plane-waves:      6455
 maximum index in each direction: 
   IXMAX=    4   IYMAX=    4   IZMAX=   75
   IXMIN=   -5   IYMIN=   -5   IZMIN=  -75

 NGX is ok and might be reduce to  20
 NGY is ok and might be reduce to  20
 NGZ is ok and might be reduce to 302

 serial   3D FFT for wavefunctions
 parallel 3D FFT for charge:
    minimum data exchange during FFTs selected (reduces bandwidth)


 total amount of memory used by VASP on root node   212052. kBytes
========================================================================

   base      :      30000. kBytes
   nonl-proj :     158543. kBytes
   fftplans  :       2116. kBytes
   grid      :       8000. kBytes
   one-center:       1210. kBytes
   wavefun   :      12183. kBytes
 
     INWAV:  cpu time    0.0000: real time    0.0000
 Broyden mixing: mesh for mixing (old mesh)
   NGX =  9   NGY =  9   NGZ =151
  (NGX  = 40   NGY  = 40   NGZ  =640)
  gives a total of  12231 points

 initial charge density was supplied:
 charge density of overlapping atoms calculated
 number of electron     130.0000000 magnetization 
 keeping initial charge density in first step


--------------------------------------------------------------------------------------------------------


 Maximum index for augmentation-charges          908 (set IRDMAX)


--------------------------------------------------------------------------------------------------------


 First call to EWALD:  gamma=   0.233
 Maximum number of real-space cells 7x 7x 1
 Maximum number of reciprocal cells 1x 1x15

 FEWALD executed in parallel
    FEWALD:  cpu time    0.0090: real time    0.0095


----------------------------------------- Iteration    1(   1)  ---------------------------------------


    POTLOK:  cpu time    0.2060: real time    0.2075
    SETDIJ:  cpu time    0.0530: real time    0.0531
     EDDAV:  cpu time   42.7695: real time   43.8353
 BZINTS: Fermi energy: 15.381875;130.000000 electrons
         Band energy:-698.178254;  BLOECHL correction: -0.074247
       DOS:  cpu time    0.1990: real time    0.1990
    --------------------------------------------
      LOOP:  cpu time   43.2334: real time   44.3068

 eigenvalue-minimisations  :  7280
 total energy-change (2. order) : 0.9230961E+03  (-0.5833522E+04)
 number of electron     130.0000000 magnetization 
 augmentation part      130.0000000 magnetization 

 Free energy of the ion-electron system (eV)
  ---------------------------------------------------
  alpha Z        PSCENC =       272.25007974
  Ewald energy   TEWEN  =    103810.01761152
  -Hartree energ DENC   =   -115053.99254846
  -exchange      EXHF   =         0.00000000
  -V(xc)+E(xc)   XCENC  =       418.81595692
  PAW double counting   =      9763.05928655    -9664.08745959
  entropy T*S    EENTRO =         0.00000000
  eigenvalues    EBANDS =      -698.17825355
  atomic energy  EATOM  =     12075.21144503
  Solvation  Ediel_sol  =         0.00000000
  ---------------------------------------------------
  free energy    TOTEN  =       923.09611816 eV

  energy without entropy =      923.09611816  energy(sigma->0) =      923.09611816


--------------------------------------------------------------------------------------------------------




----------------------------------------- Iteration    1(   2)  ---------------------------------------


     EDDAV:  cpu time   60.1839: real time   62.1915
 BZINTS: Fermi energy:  5.330813;130.000000 electrons
         Band energy:***********;  BLOECHL correction:  0.000000
       DOS:  cpu time    0.0420: real time    0.0414
    --------------------------------------------
      LOOP:  cpu time   60.2718: real time   62.3039

 eigenvalue-minimisations  :  9268
 total energy-change (2. order) :-0.9752618E+03  (-0.9607247E+03)
 number of electron     130.0000000 magnetization 
 augmentation part      130.0000000 magnetization 

 Free energy of the ion-electron system (eV)
  ---------------------------------------------------
  alpha Z        PSCENC =       272.25007974
  Ewald energy   TEWEN  =    103810.01761152
  -Hartree energ DENC   =   -115053.99254846
  -exchange      EXHF   =         0.00000000
  -V(xc)+E(xc)   XCENC  =       418.81595692
  PAW double counting   =      9763.05928655    -9664.08745959
  entropy T*S    EENTRO =         0.00000000
  eigenvalues    EBANDS =     -1673.44002486
  atomic energy  EATOM  =     12075.21144503
  Solvation  Ediel_sol  =         0.00000000
  ---------------------------------------------------
  free energy    TOTEN  =       -52.16565315 eV

  energy without entropy =      -52.16565315  energy(sigma->0) =      -52.16565315


--------------------------------------------------------------------------------------------------------




----------------------------------------- Iteration    1(   3)  ---------------------------------------


     EDDAV:  cpu time   56.7464: real time   58.3847
 BZINTS: Fermi energy:  3.706744;130.000000 electrons
         Band energy:***********;  BLOECHL correction:  0.000000
       DOS:  cpu time    0.0350: real time    0.0358
    --------------------------------------------
      LOOP:  cpu time   56.7854: real time   58.4523

 eigenvalue-minimisations  :  8344
 total energy-change (2. order) :-0.7474113E+02  (-0.7430347E+02)
 number of electron     130.0000000 magnetization 
 augmentation part      130.0000000 magnetization 

 Free energy of the ion-electron system (eV)
  ---------------------------------------------------
  alpha Z        PSCENC =       272.25007974
  Ewald energy   TEWEN  =    103810.01761152
  -Hartree energ DENC   =   -115053.99254846
  -exchange      EXHF   =         0.00000000
  -V(xc)+E(xc)   XCENC  =       418.81595692
  PAW double counting   =      9763.05928655    -9664.08745959
  entropy T*S    EENTRO =         0.00000000
  eigenvalues    EBANDS =     -1748.18115865
  atomic energy  EATOM  =     12075.21144503
  Solvation  Ediel_sol  =         0.00000000
  ---------------------------------------------------
  free energy    TOTEN  =      -126.90678694 eV

  energy without entropy =     -126.90678694  energy(sigma->0) =     -126.90678694


--------------------------------------------------------------------------------------------------------




----------------------------------------- Iteration    1(   4)  ---------------------------------------


     EDDAV:  cpu time   77.3972: real time   82.0454
 BZINTS: Fermi energy:  3.708638;130.000000 electrons
         Band energy:***********;  BLOECHL correction:  0.000000
       DOS:  cpu time    0.0380: real time    0.0394
    --------------------------------------------
      LOOP:  cpu time   77.4382: real time   82.0929

 eigenvalue-minimisations  : 12376
 total energy-change (2. order) :-0.3974662E+01  (-0.3967467E+01)
 number of electron     130.0000000 magnetization 
 augmentation part      130.0000000 magnetization 

 Free energy of the ion-electron system (eV)
  ---------------------------------------------------
  alpha Z        PSCENC =       272.25007974
  Ewald energy   TEWEN  =    103810.01761152
  -Hartree energ DENC   =   -115053.99254846
  -exchange      EXHF   =         0.00000000
  -V(xc)+E(xc)   XCENC  =       418.81595692
  PAW double counting   =      9763.05928655    -9664.08745959
  entropy T*S    EENTRO =         0.00000000
  eigenvalues    EBANDS =     -1752.15582047
  atomic energy  EATOM  =     12075.21144503
  Solvation  Ediel_sol  =         0.00000000
  ---------------------------------------------------
  free energy    TOTEN  =      -130.88144875 eV

  energy without entropy =     -130.88144875  energy(sigma->0) =     -130.88144875


--------------------------------------------------------------------------------------------------------




----------------------------------------- Iteration    1(   5)  ---------------------------------------


     EDDAV:  cpu time   53.3939: real time   55.2369
 BZINTS: Fermi energy:  3.597975;130.000000 electrons
         Band energy:***********;  BLOECHL correction:  0.000000
       DOS:  cpu time    0.0430: real time    0.0433
    CHARGE:  cpu time    1.5648: real time    1.6531
    MIXING:  cpu time    0.0080: real time    0.0077
    --------------------------------------------
      LOOP:  cpu time   55.0186: real time   56.9787

 eigenvalue-minimisations  :  8316
 total energy-change (2. order) :-0.2202983E-01  (-0.2201319E-01)
 number of electron     130.0000003 magnetization 
 augmentation part       -9.0659399 magnetization 

 Broyden mixing:
  rms(total) = 0.23567E+01    rms(broyden)= 0.23553E+01
  rms(prec ) = 0.24164E+01
  weight for this iteration     100.00

 Free energy of the ion-electron system (eV)
  ---------------------------------------------------
  alpha Z        PSCENC =       272.25007974
  Ewald energy   TEWEN  =    103810.01761152
  -Hartree energ DENC   =   -115053.99254846
  -exchange      EXHF   =         0.00000000
  -V(xc)+E(xc)   XCENC  =       418.81595692
  PAW double counting   =      9763.05928655    -9664.08745959
  entropy T*S    EENTRO =         0.00000000
  eigenvalues    EBANDS =     -1752.17785030
  atomic energy  EATOM  =     12075.21144503
  Solvation  Ediel_sol  =         0.00000000
  ---------------------------------------------------
  free energy    TOTEN  =      -130.90347859 eV

  energy without entropy =     -130.90347859  energy(sigma->0) =     -130.90347859


--------------------------------------------------------------------------------------------------------




----------------------------------------- Iteration    1(   6)  ---------------------------------------


    POTLOK:  cpu time    0.1950: real time    0.1969
    SETDIJ:  cpu time    0.0500: real time    0.0511
     EDDAV:  cpu time   59.2500: real time   60.3825
 BZINTS: Fermi energy:  1.950190;130.000000 electrons
         Band energy:***********;  BLOECHL correction:  0.000000
       DOS:  cpu time    0.0380: real time    0.0377
    CHARGE:  cpu time    1.5528: real time    1.5632
    MIXING:  cpu time    0.0080: real time    0.0074
    --------------------------------------------
      LOOP:  cpu time   61.0987: real time   62.2491

 eigenvalue-minimisations  : 10640
 total energy-change (2. order) : 0.1409972E+02  (-0.1160806E+02)
 number of electron     130.0000008 magnetization 
 augmentation part       -6.5961788 magnetization 

 Broyden mixing:
  rms(total) = 0.12071E+01    rms(broyden)= 0.12065E+01
  rms(prec ) = 0.12524E+01
  weight for this iteration     100.00

 eigenvalues of (default mixing * dielectric matrix)
  average eigenvalue GAMMA=   0.7275
  0.7275

 Free energy of the ion-electron system (eV)
  ---------------------------------------------------
  alpha Z        PSCENC =       272.25007974
  Ewald energy   TEWEN  =    103810.01761152
  -Hartree energ DENC   =   -114791.95059533
  -exchange      EXHF   =         0.00000000
  -V(xc)+E(xc)   XCENC  =       412.88972076
  PAW double counting   =      9352.02635104    -9259.55666266
  entropy T*S    EENTRO =         0.00000000
  eigenvalues    EBANDS =     -1987.69170740
  atomic energy  EATOM  =     12075.21144503
  Solvation  Ediel_sol  =         0.00000000
  ---------------------------------------------------
  free energy    TOTEN  =      -116.80375731 eV

  energy without entropy =     -116.80375731  energy(sigma->0) =     -116.80375731


--------------------------------------------------------------------------------------------------------




----------------------------------------- Iteration    1(   7)  ---------------------------------------


    POTLOK:  cpu time    0.1960: real time    0.1970
    SETDIJ:  cpu time    0.0520: real time    0.0516
     EDDAV:  cpu time   56.7664: real time   58.5632
 BZINTS: Fermi energy:  2.632459;130.000000 electrons
         Band energy:***********;  BLOECHL correction:  0.000000
       DOS:  cpu time    0.0370: real time    0.0374
    CHARGE:  cpu time    1.5328: real time    1.5423
    MIXING:  cpu time    0.0070: real time    0.0071
    --------------------------------------------
      LOOP:  cpu time   58.5941: real time   60.4252

 eigenvalue-minimisations  : 10136
 total energy-change (2. order) : 0.3693958E+01  (-0.2727681E+01)
 number of electron     130.0000006 magnetization 
 augmentation part       -7.5782943 magnetization 

 Broyden mixing:
  rms(total) = 0.65723E+00    rms(broyden)= 0.65698E+00
  rms(prec ) = 0.66186E+00
  weight for this iteration     100.00

 eigenvalues of (default mixing * dielectric matrix)
  average eigenvalue GAMMA=   1.5551
  2.4943  0.6159

 Free energy of the ion-electron system (eV)
  ---------------------------------------------------
  alpha Z        PSCENC =       272.25007974
  Ewald energy   TEWEN  =    103810.01761152
  -Hartree energ DENC   =   -114909.74775696
  -exchange      EXHF   =         0.00000000
  -V(xc)+E(xc)   XCENC  =       414.57040791
  PAW double counting   =      9615.61166697    -9519.96660680
  entropy T*S    EENTRO =         0.00000000
  eigenvalues    EBANDS =     -1871.05664693
  atomic energy  EATOM  =     12075.21144503
  Solvation  Ediel_sol  =         0.00000000
  ---------------------------------------------------
  free energy    TOTEN  =      -113.10979952 eV

  energy without entropy =     -113.10979952  energy(sigma->0) =     -113.10979952


--------------------------------------------------------------------------------------------------------




----------------------------------------- Iteration    1(   8)  ---------------------------------------


    POTLOK:  cpu time    0.1860: real time    0.1872
    SETDIJ:  cpu time    0.0500: real time    0.0498
     EDDAV:  cpu time   67.6337: real time   70.9453
 BZINTS: Fermi energy:  2.331187;130.000000 electrons
         Band energy:***********;  BLOECHL correction:  0.000000
       DOS:  cpu time    0.0490: real time    0.0491
    CHARGE:  cpu time    1.6268: real time    1.6407
    MIXING:  cpu time    0.0060: real time    0.0064
    --------------------------------------------
      LOOP:  cpu time   69.5574: real time   72.9286

 eigenvalue-minimisations  : 10724
 total energy-change (2. order) : 0.2383734E+00  (-0.2715414E+00)
 number of electron     130.0000007 magnetization 
 augmentation part       -7.3603894 magnetization 

 Broyden mixing:
  rms(total) = 0.13451E+00    rms(broyden)= 0.13446E+00
  rms(prec ) = 0.13855E+00
  weight for this iteration     100.00

 eigenvalues of (default mixing * dielectric matrix)
  average eigenvalue GAMMA=   1.3582
  0.5931  1.0573  2.4244

 Free energy of the ion-electron system (eV)
  ---------------------------------------------------
  alpha Z        PSCENC =       272.25007974
  Ewald energy   TEWEN  =    103810.01761152
  -Hartree energ DENC   =   -114879.38751403
  -exchange      EXHF   =         0.00000000
  -V(xc)+E(xc)   XCENC  =       413.56398838
  PAW double counting   =      9607.81953705    -9512.14501411
  entropy T*S    EENTRO =         0.00000000
  eigenvalues    EBANDS =     -1900.20155967
  atomic energy  EATOM  =     12075.21144503
  Solvation  Ediel_sol  =         0.00000000
  ---------------------------------------------------
  free energy    TOTEN  =      -112.87142609 eV

  energy without entropy =     -112.87142609  energy(sigma->0) =     -112.87142609


--------------------------------------------------------------------------------------------------------




----------------------------------------- Iteration    1(   9)  ---------------------------------------


    POTLOK:  cpu time    0.1940: real time    0.1961
    SETDIJ:  cpu time    0.0510: real time    0.0504
     EDDAV:  cpu time   56.1905: real time   57.5711
 BZINTS: Fermi energy:  2.458143;130.000000 electrons
         Band energy:***********;  BLOECHL correction:  0.000000
       DOS:  cpu time    0.0370: real time    0.0374
    CHARGE:  cpu time    1.5308: real time    1.5422
    MIXING:  cpu time    0.0080: real time    0.0078
    --------------------------------------------
      LOOP:  cpu time   58.0152: real time   59.4327

 eigenvalue-minimisations  :  9940
 total energy-change (2. order) : 0.4665900E-01  (-0.2217087E-01)
 number of electron     130.0000007 magnetization 
 augmentation part       -7.4634265 magnetization 

 Broyden mixing:
  rms(total) = 0.54099E-01    rms(broyden)= 0.54088E-01
  rms(prec ) = 0.54626E-01
  weight for this iteration     100.00

 eigenvalues of (default mixing * dielectric matrix)
  average eigenvalue GAMMA=   1.3596
  2.5417  1.4218  0.5946  0.8803

 Free energy of the ion-electron system (eV)
  ---------------------------------------------------
  alpha Z        PSCENC =       272.25007974
  Ewald energy   TEWEN  =    103810.01761152
  -Hartree energ DENC   =   -114894.86868296
  -exchange      EXHF   =         0.00000000
  -V(xc)+E(xc)   XCENC  =       413.88472626
  PAW double counting   =      9636.44007953    -9540.35461487
  entropy T*S    EENTRO =         0.00000000
  eigenvalues    EBANDS =     -1885.40541134
  atomic energy  EATOM  =     12075.21144503
  Solvation  Ediel_sol  =         0.00000000
  ---------------------------------------------------
  free energy    TOTEN  =      -112.82476709 eV

  energy without entropy =     -112.82476709  energy(sigma->0) =     -112.82476709


--------------------------------------------------------------------------------------------------------




----------------------------------------- Iteration    1(  10)  ---------------------------------------


    POTLOK:  cpu time    0.1880: real time    0.1890
    SETDIJ:  cpu time    0.0520: real time    0.0515
     EDDAV:  cpu time   63.7173: real time   65.8196
 BZINTS: Fermi energy:  2.492696;130.000000 electrons
         Band energy:***********;  BLOECHL correction:  0.000000
       DOS:  cpu time    0.0360: real time    0.0361
    CHARGE:  cpu time    1.5248: real time    1.5342
    MIXING:  cpu time    0.0080: real time    0.0077
    --------------------------------------------
      LOOP:  cpu time   65.5300: real time   67.6473

 eigenvalue-minimisations  :  9940
 total energy-change (2. order) : 0.1374892E-02  (-0.3311832E-02)
 number of electron     130.0000006 magnetization 
 augmentation part       -7.4926636 magnetization 

 Broyden mixing:
  rms(total) = 0.23012E-01    rms(broyden)= 0.23004E-01
  rms(prec ) = 0.23420E-01
  weight for this iteration     100.00

 eigenvalues of (default mixing * dielectric matrix)
  average eigenvalue GAMMA=   1.3782
  2.6127  1.6864  0.5972  1.1321  0.8624

 Free energy of the ion-electron system (eV)
  ---------------------------------------------------
  alpha Z        PSCENC =       272.25007974
  Ewald energy   TEWEN  =    103810.01761152
  -Hartree energ DENC   =   -114899.65307409
  -exchange      EXHF   =         0.00000000
  -V(xc)+E(xc)   XCENC  =       414.01093638
  PAW double counting   =      9645.95831090    -9549.72731349
  entropy T*S    EENTRO =         0.00000000
  eigenvalues    EBANDS =     -1880.89138819
  atomic energy  EATOM  =     12075.21144503
  Solvation  Ediel_sol  =         0.00000000
  ---------------------------------------------------
  free energy    TOTEN  =      -112.82339220 eV

  energy without entropy =     -112.82339220  energy(sigma->0) =     -112.82339220


--------------------------------------------------------------------------------------------------------




----------------------------------------- Iteration    1(  11)  ---------------------------------------


    POTLOK:  cpu time    0.1840: real time    0.1849
    SETDIJ:  cpu time    0.0500: real time    0.0498
     EDDAV:  cpu time   63.1334: real time   64.9381
 BZINTS: Fermi energy:  2.502985;130.000000 electrons
         Band energy:***********;  BLOECHL correction:  0.000000
       DOS:  cpu time    0.0400: real time    0.0396
    CHARGE:  cpu time    1.6128: real time    1.6249
    MIXING:  cpu time    0.0080: real time    0.0079
    --------------------------------------------
      LOOP:  cpu time   65.0301: real time   66.8751

 eigenvalue-minimisations  :  9660
 total energy-change (2. order) : 0.6653347E-03  (-0.5388998E-03)
 number of electron     130.0000007 magnetization 
 augmentation part       -7.4832384 magnetization 

 Broyden mixing:
  rms(total) = 0.93718E-02    rms(broyden)= 0.93676E-02
  rms(prec ) = 0.97396E-02
  weight for this iteration     100.00

 eigenvalues of (default mixing * dielectric matrix)
  average eigenvalue GAMMA=   1.3295
  2.5152  1.6359  1.6359  0.9489  0.6004  0.6404

 Free energy of the ion-electron system (eV)
  ---------------------------------------------------
  alpha Z        PSCENC =       272.25007974
  Ewald energy   TEWEN  =    103810.01761152
  -Hartree energ DENC   =   -114901.90719975
  -exchange      EXHF   =         0.00000000
  -V(xc)+E(xc)   XCENC  =       414.00881460
  PAW double counting   =      9641.57052226    -9545.36118219
  entropy T*S    EENTRO =         0.00000000
  eigenvalues    EBANDS =     -1878.61281807
  atomic energy  EATOM  =     12075.21144503
  Solvation  Ediel_sol  =         0.00000000
  ---------------------------------------------------
  free energy    TOTEN  =      -112.82272686 eV

  energy without entropy =     -112.82272686  energy(sigma->0) =     -112.82272686


--------------------------------------------------------------------------------------------------------




----------------------------------------- Iteration    1(  12)  ---------------------------------------


    POTLOK:  cpu time    0.1950: real time    0.1964
    SETDIJ:  cpu time    0.0500: real time    0.0499
     EDDAV:  cpu time   54.0838: real time   56.5936
 BZINTS: Fermi energy:  2.507715;130.000000 electrons
         Band energy:***********;  BLOECHL correction:  0.000000
       DOS:  cpu time    0.0410: real time    0.0470
    CHARGE:  cpu time    1.5588: real time    1.7010
    MIXING:  cpu time    0.0080: real time    0.0082
    --------------------------------------------
      LOOP:  cpu time   55.9395: real time   58.6227

 eigenvalue-minimisations  :  9660
 total energy-change (2. order) : 0.1927163E-03  (-0.1186140E-03)
 number of electron     130.0000007 magnetization 
 augmentation part       -7.4798681 magnetization 

 Broyden mixing:
  rms(total) = 0.47162E-02    rms(broyden)= 0.47145E-02
  rms(prec ) = 0.49435E-02
  weight for this iteration     100.00

 eigenvalues of (default mixing * dielectric matrix)
  average eigenvalue GAMMA=   1.3707
  2.4502  2.4502  1.3712  1.2328  0.8730  0.6003  0.6176

 Free energy of the ion-electron system (eV)
  ---------------------------------------------------
  alpha Z        PSCENC =       272.25007974
  Ewald energy   TEWEN  =    103810.01761152
  -Hartree energ DENC   =   -114902.78652452
  -exchange      EXHF   =         0.00000000
  -V(xc)+E(xc)   XCENC  =       413.99729521
  PAW double counting   =      9638.03590312    -9541.85046303
  entropy T*S    EENTRO =         0.00000000
  eigenvalues    EBANDS =     -1877.69788121
  atomic energy  EATOM  =     12075.21144503
  Solvation  Ediel_sol  =         0.00000000
  ---------------------------------------------------
  free energy    TOTEN  =      -112.82253415 eV

  energy without entropy =     -112.82253415  energy(sigma->0) =     -112.82253415


--------------------------------------------------------------------------------------------------------




----------------------------------------- Iteration    1(  13)  ---------------------------------------


    POTLOK:  cpu time    0.1940: real time    0.1947
    SETDIJ:  cpu time    0.0520: real time    0.0518
     EDDAV:  cpu time   51.5512: real time   54.1681
 BZINTS: Fermi energy:  2.518306;130.000000 electrons
         Band energy:***********;  BLOECHL correction:  0.000000
       DOS:  cpu time    0.0390: real time    0.0398
    CHARGE:  cpu time    1.6238: real time    1.6348
    MIXING:  cpu time    0.0080: real time    0.0080
    --------------------------------------------
      LOOP:  cpu time   53.4709: real time   56.1066

 eigenvalue-minimisations  :  9324
 total energy-change (2. order) : 0.3627230E-04  (-0.3704531E-04)
 number of electron     130.0000007 magnetization 
 augmentation part       -7.4819818 magnetization 

 Broyden mixing:
  rms(total) = 0.18683E-02    rms(broyden)= 0.18674E-02
  rms(prec ) = 0.20453E-02
  weight for this iteration     100.00

 eigenvalues of (default mixing * dielectric matrix)
  average eigenvalue GAMMA=   1.3950
  2.5408  2.5408  1.5124  1.5124  0.9137  0.9137  0.5977  0.6282

 Free energy of the ion-electron system (eV)
  ---------------------------------------------------
  alpha Z        PSCENC =       272.25007974
  Ewald energy   TEWEN  =    103810.01761152
  -Hartree energ DENC   =   -114904.64359265
  -exchange      EXHF   =         0.00000000
  -V(xc)+E(xc)   XCENC  =       414.00510742
  PAW double counting   =      9636.43094194    -9540.24014327
  entropy T*S    EENTRO =         0.00000000
  eigenvalues    EBANDS =     -1875.85394760
  atomic energy  EATOM  =     12075.21144503
  Solvation  Ediel_sol  =         0.00000000
  ---------------------------------------------------
  free energy    TOTEN  =      -112.82249787 eV

  energy without entropy =     -112.82249787  energy(sigma->0) =     -112.82249787


[...]
    LRDIAG:  cpu time    1.3758: real time    1.3807
    LRDIIS:  cpu time   32.7340: real time   32.9730
    LRDIAG:  cpu time    1.3798: real time    1.3860
    MIXING:  cpu time    0.0150: real time    0.0156
    --------------------------------------------
      LOOP:  cpu time   46.9599: real time   47.3047

 Broyden mixing:
  rms(total) = 0.15190E-05    rms(broyden)= 0.15183E-05
  rms(prec ) = 0.15490E-05
  weight for this iteration     100.00

 eigenvalues of (default mixing * dielectric matrix)
  average eigenvalue GAMMA=   2.1419
  9.4730  7.9143  5.0050  3.7784  3.1232  3.1232  2.2976  2.1386  1.8031  1.3466
  1.3466  1.1258  1.0127  0.9293  0.9293  0.8213  0.8213  0.8094  0.7078  0.6665
  0.6195  0.5964  0.5964  0.4205

 Free energy of the ion-electron system (eV)
  ---------------------------------------------------
  -Hartree energ DENC   =        -0.94863149
  -V(xc)+E(xc)   XCENC  =         0.01434077
  PAW double counting   =         0.04414174       -0.04418817
  entropy T*S    EENTRO =         0.00000000
  eigenvalues    EBANDS =        -0.39774996
  ---------------------------------------------------
  free energy    TOTEN  =        -1.33208710 eV

  energy without entropy =       -1.33208710


----------------------------------------- Iteration    3(  27)  ---------------------------------------


   POT+DIJ:  cpu time    0.4969: real time    0.5005
    HAMIL1:  cpu time    7.6938: real time    7.7657
    LRDIAG:  cpu time    1.3728: real time    1.3799
    LRDIIS:  cpu time   32.2631: real time   32.5260
    LRDIAG:  cpu time    1.3838: real time    1.3886
    MIXING:  cpu time    0.0150: real time    0.0158
    --------------------------------------------
      LOOP:  cpu time   46.4859: real time   46.8670

 Broyden mixing:
  rms(total) = 0.15338E-05    rms(broyden)= 0.15334E-05
  rms(prec ) = 0.15459E-05
  weight for this iteration     100.00

 eigenvalues of (default mixing * dielectric matrix)
  average eigenvalue GAMMA=   2.1321
  9.7048  7.8875  5.0777  3.7591  3.2117  3.2117  2.4081  2.0040  2.0040  1.6188
  1.3027  1.3027  1.0554  0.9283  0.9283  0.9224  0.8299  0.8145  0.8145  0.7072
  0.5967  0.6180  0.6307  0.5835  0.3806

 Free energy of the ion-electron system (eV)
  ---------------------------------------------------
  -Hartree energ DENC   =        -0.94863232
  -V(xc)+E(xc)   XCENC  =         0.01434070
  PAW double counting   =         0.04414102       -0.04418742
  entropy T*S    EENTRO =         0.00000000
  eigenvalues    EBANDS =        -0.39788070
  ---------------------------------------------------
  free energy    TOTEN  =        -1.33221873 eV

  energy without entropy =       -1.33221873


----------------------------------------- Iteration    3(  28)  ---------------------------------------


   POT+DIJ:  cpu time    0.4959: real time    0.5005
    HAMIL1:  cpu time    7.6958: real time    7.7439
    LRDIAG:  cpu time    1.3708: real time    1.3767
    LRDIIS:  cpu time   32.6760: real time   32.8768
    LRDIAG:  cpu time    1.3928: real time    1.3994
    MIXING:  cpu time    0.0170: real time    0.0170
    --------------------------------------------
      LOOP:  cpu time   46.9239: real time   47.2130

 Broyden mixing:
  rms(total) = 0.14846E-05    rms(broyden)= 0.14842E-05
  rms(prec ) = 0.14863E-05
  weight for this iteration     100.00

 eigenvalues of (default mixing * dielectric matrix)
  average eigenvalue GAMMA=   2.1012
  9.7862  7.8839  5.1103  3.8758  3.2573  3.2573  2.3550  2.2084  1.9952  1.7605
  1.2961  1.2961  1.1203  0.9293  0.9293  0.9588  0.8507  0.8250  0.8250  0.7064
  0.6904  0.5967  0.6202  0.6047  0.5395  0.3536

 Free energy of the ion-electron system (eV)
  ---------------------------------------------------
  -Hartree energ DENC   =        -0.94863170
  -V(xc)+E(xc)   XCENC  =         0.01434067
  PAW double counting   =         0.04414075       -0.04418714
  entropy T*S    EENTRO =         0.00000000
  eigenvalues    EBANDS =        -0.39764250
  ---------------------------------------------------
  free energy    TOTEN  =        -1.33197992 eV

  energy without entropy =       -1.33197992


------------------------ aborting loop because EDIFF is reached ----------------------------------------


 change of polarisation eV/A/(eV/A) component  3 :    -0.000    -0.000     2.606
 dielectric tensor                  component  3 :    -0.000    -0.000     2.074


--------------------------------------------------------------------------------------------------------


    FORLOC:  cpu time    0.0270: real time    0.0275
    FORNL :  cpu time   15.8446: real time   15.8821
    STRESS:  cpu time   36.6114: real time   36.8030
    FORCOR:  cpu time    0.2090: real time    0.2110
    OFIELD:  cpu time    0.0000: real time    0.0003

  Hirshfeld charges:
            ion         q(e)     
   ------------------------------
      1     Mo          0.374
      2     Mo          0.372
      3     Mo          0.372
      4     Mo          0.372
      5     Mo          0.374
      6     S          -0.186
      7     S          -0.187
      8     S          -0.186
      9     S          -0.186
     10     S          -0.186
     11     S          -0.186
     12     S          -0.186
     13     S          -0.186
     14     S          -0.187
     15     S          -0.186

  Tkatchenko/Scheffler method for vdW energy calculation
  ---------------------------------------------------------------------------------------------

  Parameters of vdW forcefield:
            C6ts              R0ts           ALPHAts        RELVOL
            (au)              (au)            (au)                
   ---------------------------------------------------------------
   Mo       1059.771          4.121         89.744          1.015
   Mo       1070.541          4.128         90.199          1.020
   Mo       1070.549          4.128         90.199          1.020
   Mo       1070.541          4.128         90.199          1.020
   Mo       1059.772          4.121         89.744          1.015
   S         136.634          3.868         19.792          1.010
   S         133.849          3.854         19.589          0.999
   S         136.639          3.868         19.792          1.010
   S         136.633          3.868         19.792          1.010
   S         136.638          3.868         19.792          1.010
   S         136.638          3.868         19.792          1.010
   S         136.633          3.868         19.792          1.010
   S         136.639          3.868         19.792          1.010
   S         133.849          3.854         19.589          0.999
   S         136.634          3.868         19.792          1.010
  Edisp (eV):   -4.46769
    FORVDW:  cpu time    5.8511: real time    5.8678
    FORLOC:  cpu time    0.0260: real time    0.0272
    FORNL :  cpu time   15.8396: real time   15.8754
    STRESS:  cpu time   36.4565: real time   36.7296
    FORCOR:  cpu time    0.2100: real time    0.2110
    OFIELD:  cpu time    0.0020: real time    0.0016

  Hirshfeld charges:
            ion         q(e)     
   ------------------------------
      1     Mo          0.374
      2     Mo          0.372
      3     Mo          0.372
      4     Mo          0.372
      5     Mo          0.374
      6     S          -0.186
      7     S          -0.187
      8     S          -0.186
      9     S          -0.186
     10     S          -0.186
     11     S          -0.186
     12     S          -0.186
     13     S          -0.186
     14     S          -0.187
     15     S          -0.186

  Tkatchenko/Scheffler method for vdW energy calculation
  ---------------------------------------------------------------------------------------------

  Parameters of vdW forcefield:
            C6ts              R0ts           ALPHAts        RELVOL
            (au)              (au)            (au)                
   ---------------------------------------------------------------
   Mo       1059.772          4.121         89.744          1.015
   Mo       1070.541          4.128         90.199          1.020
   Mo       1070.549          4.128         90.199          1.020
   Mo       1070.541          4.128         90.199          1.020
   Mo       1059.771          4.121         89.744          1.015
   S         136.634          3.868         19.792          1.010
   S         133.849          3.854         19.589          0.999
   S         136.639          3.868         19.792          1.010
   S         136.633          3.868         19.792          1.010
   S         136.638          3.868         19.792          1.010
   S         136.638          3.868         19.792          1.010
   S         136.633          3.868         19.792          1.010
   S         136.639          3.868         19.792          1.010
   S         133.849          3.854         19.589          0.999
   S         136.634          3.868         19.792          1.010
  Edisp (eV):   -4.46769
    FORVDW:  cpu time    5.8711: real time    5.9075
    FORNLD:  cpu time   31.0073: real time   31.1522

 PIEZOELECTRIC TENSOR FIELD DIRECTION 3  (e Angst)
 -----------------------------------------------------------------------------
    -0.00021 -0.00000  0.00000           (  0.00000  0.00000 -0.00000)
     0.00000 -0.00021  0.00000           (  0.00000  0.00000  0.00000)
    -0.00000  0.00000 -0.00024           ( -0.00000  0.00000  0.00000)

 PIEZOELECTRIC TENSOR FIELD DIRECTION 3  (C/m^2)
 -----------------------------------------------------------------------------
    -0.00001 -0.00000  0.00000
     0.00000 -0.00001  0.00000
    -0.00000  0.00000 -0.00001


      POSITION         DIRECTION 3           BORN EFFECTIVE CHARGE    (rigid.aug.   ionic)
 -----------------------------------------------------------------------------------------
     -0.00000      0.91916     12.70000    -0.00000 -0.00000-51.07867 (  0.17437 14.00000)
      1.59203      1.83832     18.85000     0.00000 -0.00000-12.91763 (  0.17425 14.00000)
     -0.00000      0.91916     25.00000    -0.00000  0.00000  0.23616 (  0.17424 14.00000)
      1.59203      1.83832     31.15000     0.00000  0.00000-12.91765 (  0.17425 14.00000)
     -0.00000      0.91916     37.30000    -0.00000  0.00000-51.07905 (  0.17437 14.00000)
      1.59203      1.83832     14.26356    -0.00000  0.00000 -3.42325 (  0.66111  6.00000)
      1.59203      1.83832     11.13644     0.00000 -0.00000 -0.24926 (  0.66041  6.00000)
     -0.00000      0.91916     20.41356     0.00000  0.00000 -0.37236 (  0.66112  6.00000)
     -0.00000      0.91916     17.28644     0.00000  0.00000  0.70872 (  0.66112  6.00000)
      1.59203      1.83832     26.56356     0.00000 -0.00000  0.35249 (  0.66112  6.00000)
      1.59203      1.83832     23.43644    -0.00000 -0.00000  0.35250 (  0.66112  6.00000)
     -0.00000      0.91916     32.71356     0.00000 -0.00000  0.70873 (  0.66112  6.00000)
     -0.00000      0.91916     29.58644    -0.00000 -0.00000 -0.37236 (  0.66112  6.00000)
      1.59203      1.83832     38.86356    -0.00000  0.00000 -0.24926 (  0.66041  6.00000)
      1.59203      1.83832     35.73644     0.00000 -0.00000 -3.42324 (  0.66111  6.00000)
 -----------------------------------------------------------------------------------------
    total drift (improves with k-points):   0.00000 -0.00000*********




--------------------------------------------------------------------------------------------------------


  LATTYP: Found a hexagonal cell.
 ALAT       =     3.1840664647
 C/A-ratio  =    15.7031897903
  
  Lattice vectors:
  
 A1 = (   3.1840664647,   0.0000000000,   0.0000000000)
 A2 = (  -1.5920332323,   2.7574824458,   0.0000000000)
 A3 = (   0.0000000000,   0.0000000000,  50.0000000000)


Analysis of symmetry for initial positions (statically):
=====================================================================
 Subroutine PRICEL returns:
 Original cell was already a primitive cell.
 

 Routine SETGRP: Setting up the symmetry group for a 
 hexagonal supercell.


 Subroutine GETGRP returns: Found 12 space group operations
 (whereof  4 operations were pure point group operations)
 out of a pool of 24 trial point group operations.


The static configuration has the point symmetry C_2v.
 The point group associated with its full space group is D_3h.


Analysis of symmetry for dynamics (positions and initial velocities):
=====================================================================
 Subroutine PRICEL returns:
 Original cell was already a primitive cell.
 

 Routine SETGRP: Setting up the symmetry group for a 
 hexagonal supercell.


 Subroutine GETGRP returns: Found 12 space group operations
 (whereof  4 operations were pure point group operations)
 out of a pool of 24 trial point group operations.


The dynamic configuration has the point symmetry C_2v.
 The point group associated with its full space group is D_3h.


 Subroutine INISYM returns: Found 12 space group operations
 (whereof  4 operations are pure point group operations),
 and found     1 'primitive' translations



 MACROSCOPIC STATIC DIELECTRIC TENSOR (including local field effects in DFT)
 ------------------------------------------------------
           9.851038    -0.000000     0.000000
          -0.000000     9.851038     0.000000
           0.000000     0.000000     2.074290
 ------------------------------------------------------



--------------------------------------------------------------------------------------------------------


  LATTYP: Found a hexagonal cell.
 ALAT       =     3.1840664647
 C/A-ratio  =    15.7031897903
  
  Lattice vectors:
  
 A1 = (   3.1840664647,   0.0000000000,   0.0000000000)
 A2 = (  -1.5920332323,   2.7574824458,   0.0000000000)
 A3 = (   0.0000000000,   0.0000000000,  50.0000000000)


Analysis of symmetry for initial positions (statically):
=====================================================================
 Subroutine PRICEL returns:
 Original cell was already a primitive cell.
 

 Routine SETGRP: Setting up the symmetry group for a 
 hexagonal supercell.


 Subroutine GETGRP returns: Found 12 space group operations
 (whereof  4 operations were pure point group operations)
 out of a pool of 24 trial point group operations.


The static configuration has the point symmetry C_2v.
 The point group associated with its full space group is D_3h.


Analysis of symmetry for dynamics (positions and initial velocities):
=====================================================================
 Subroutine PRICEL returns:
 Original cell was already a primitive cell.
 

 Routine SETGRP: Setting up the symmetry group for a 
 hexagonal supercell.


 Subroutine GETGRP returns: Found 12 space group operations
 (whereof  4 operations were pure point group operations)
 out of a pool of 24 trial point group operations.


The dynamic configuration has the point symmetry C_2v.
 The point group associated with its full space group is D_3h.


 Subroutine INISYM returns: Found 12 space group operations
 (whereof  4 operations are pure point group operations),
 and found     1 'primitive' translations



--------------------------------------------------------------------------------------------------------




 MACROSCOPIC STATIC DIELECTRIC TENSOR (including local field effects in DFT)
 ------------------------------------------------------
           9.851038    -0.000000     0.000000
          -0.000000     9.851038     0.000000
           0.000000     0.000000     2.074290
 ------------------------------------------------------


 PIEZOELECTRIC TENSOR  for field in x, y, z        (e  Angst)
          XX          YY          ZZ          XY          YZ          ZX
  --------------------------------------------------------------------------------
  x    -0.01164     0.01013     0.00031    -1.69764     0.00000     0.00000
  y    -1.70933     1.71460    -0.00017     0.00000     0.00000     0.00000
  z    -0.00021    -0.00021    -0.00024     0.00000     0.00000     0.00000

 PIEZOELECTRIC TENSOR  for field in x, y, z        (C/m^2)
          XX          YY          ZZ          XY          YZ          ZX
  --------------------------------------------------------------------------------
  x    -0.00000     0.00000     0.00000    -0.06222     0.00000     0.00000
  y    -0.06222     0.06222     0.00000    -0.00000     0.00000     0.00000
  z     0.00000     0.00000     0.00000     0.00000     0.00000    -0.00000
 
 BORN EFFECTIVE CHARGES (in e, cummulative output)
 -------------------------------------------------
 ion    1
    1    -0.98416    -0.00075    -0.00000
    2     0.00000    -0.98475     0.00001
    3    -0.00000    -0.00000   -51.07867
 ion    2
    1    -0.98245     0.00077     0.00000
    2    -0.00000    -0.98189    -0.00001
    3     0.00000    -0.00000   -12.91763
 ion    3
    1    -0.98854    -0.00077     0.00000
    2    -0.00000    -0.98915     0.00000
    3    -0.00000     0.00000     0.23616
 ion    4
    1    -0.98245     0.00077    -0.00000
    2    -0.00000    -0.98189     0.00001
    3     0.00000     0.00000   -12.91765
 ion    5
    1    -0.98416    -0.00075     0.00000
    2    -0.00000    -0.98475    -0.00001
    3    -0.00000     0.00000   -51.07905
 ion    6
    1     0.47776    -0.00025    -0.00020
    2    -0.00000     0.47816     0.00051
    3    -0.00000     0.00000    -3.42325
 ion    7
    1     0.50097    -0.00027     0.00012
    2     0.00000     0.50131    -0.00036
    3     0.00000    -0.00000    -0.24926
 ion    8
    1     0.48485     0.00026    -0.00019
    2    -0.00000     0.48443     0.00050
    3     0.00000     0.00000    -0.37236
 ion    9
    1     0.48521     0.00026     0.00020
    2    -0.00000     0.48478    -0.00049
    3     0.00000     0.00000     0.70872
 ion   10
    1     0.48473    -0.00025    -0.00019
    2    -0.00000     0.48515     0.00051
    3     0.00000    -0.00000     0.35249
 ion   11
    1     0.48473    -0.00025     0.00019
    2    -0.00000     0.48515    -0.00051
    3    -0.00000    -0.00000     0.35250
 ion   12
    1     0.48521     0.00026    -0.00020
    2    -0.00000     0.48478     0.00049
    3     0.00000    -0.00000     0.70873
 ion   13
    1     0.48485     0.00026     0.00019
    2    -0.00000     0.48443    -0.00050
    3    -0.00000    -0.00000    -0.37236
 ion   14
    1     0.50097    -0.00027    -0.00012
    2     0.00000     0.50131     0.00036
    3    -0.00000     0.00000    -0.24926
 ion   15
    1     0.47776    -0.00025     0.00020
    2    -0.00000     0.47816    -0.00051
    3     0.00000    -0.00000    -3.42324


--------------------------------------------------------------------------------------------------------


 writing wavefunctions
     LOOP+:  cpu time14940.0238: real time15095.3451
    4ORBIT:  cpu time    0.0000: real time    0.0000
 BZINTS: Fermi energy:  2.537630;130.000000 electrons
         Band energy:***********;  BLOECHL correction:  0.000000

 total amount of memory used by VASP on root node   212052. kBytes
========================================================================

   base      :      30000. kBytes
   nonl-proj :     158543. kBytes
   fftplans  :       2116. kBytes
   grid      :       8000. kBytes
   one-center:       1210. kBytes
   wavefun   :      12183. kBytes
 
  
  
 General timing and accounting informations for this job:
 ========================================================
  
                  Total CPU time used (sec):    14960.999
                            User time (sec):    14582.131
                          System time (sec):      378.867
                         Elapsed time (sec):    15118.198
  
                   Maximum memory used (kb):     1025468.
                   Average memory used (kb):           0.
  
                          Minor page faults:     12306948
                          Major page faults:           10
                 Voluntary context switches:        10655
