unknown system                          
           1
     3.184066    0.000000    0.000000
    -1.592033    2.757482    0.000000
     0.000000    0.000000   50.000000
   Mo   S 
   5  10
Direct configuration=     1
   0.16666667  0.33333333  0.25400000
   0.83333333  0.66666667  0.37700000
   0.16666667  0.33333333  0.50000000
   0.83333333  0.66666667  0.62300000
   0.16666667  0.33333333  0.74600000
   0.83333333  0.66666667  0.28527113
   0.83333333  0.66666667  0.22272887
   0.16666667  0.33333333  0.40827113
   0.16666667  0.33333333  0.34572887
   0.83333333  0.66666667  0.53127113
   0.83333333  0.66666667  0.46872887
   0.16666667  0.33333333  0.65427113
   0.16666667  0.33333333  0.59172887
   0.83333333  0.66666667  0.77727113
   0.83333333  0.66666667  0.71472887
