  18  18   0   0
  0.2651176E+02  0.3319749E-09  0.3319749E-09  0.5000000E-08  0.5000000E-15
  1.000000000000000E-004
  CAR 
 unknown system                          
     15.45691722    -61.01625339  301      3.79475870      1.00000000
    -61.016  0.0000E+00  0.0000E+00
    -60.761  0.0000E+00  0.0000E+00
    -60.506  0.0000E+00  0.0000E+00
    -60.252  0.0000E+00  0.0000E+00
    -59.997  0.0000E+00  0.0000E+00
    -59.742  0.0000E+00  0.0000E+00
    -59.487  0.0000E+00  0.0000E+00
    -59.232  0.0000E+00  0.0000E+00
    -58.977  0.0000E+00  0.0000E+00
    -58.722  0.0000E+00  0.0000E+00
    -58.467  0.0000E+00  0.0000E+00
    -58.212  0.0000E+00  0.0000E+00
    -57.957  0.0000E+00  0.0000E+00
    -57.702  0.0000E+00  0.0000E+00
    -57.448  0.0000E+00  0.1200E+02
    -57.193  0.0000E+00  0.1200E+02
    -56.938  0.0000E+00  0.1200E+02
    -56.683  0.0000E+00  0.1200E+02
    -56.428  0.0000E+00  0.1200E+02
    -56.173  0.0000E+00  0.1200E+02
    -55.918  0.0000E+00  0.1200E+02
    -55.663  0.0000E+00  0.1200E+02
    -55.408  0.0000E+00  0.1200E+02
    -55.153  0.0000E+00  0.1200E+02
    -54.898  0.0000E+00  0.1200E+02
    -54.643  0.0000E+00  0.1200E+02
    -54.389  0.0000E+00  0.1200E+02
    -54.134  0.0000E+00  0.1200E+02
    -53.879  0.0000E+00  0.1200E+02
    -53.624  0.0000E+00  0.1200E+02
    -53.369  0.0000E+00  0.1200E+02
    -53.114  0.0000E+00  0.1200E+02
    -52.859  0.0000E+00  0.1200E+02
    -52.604  0.0000E+00  0.1200E+02
    -52.349  0.0000E+00  0.1200E+02
    -52.094  0.0000E+00  0.1200E+02
    -51.839  0.0000E+00  0.1200E+02
    -51.585  0.0000E+00  0.1200E+02
    -51.330  0.0000E+00  0.1200E+02
    -51.075  0.0000E+00  0.1200E+02
    -50.820  0.0000E+00  0.1200E+02
    -50.565  0.0000E+00  0.1200E+02
    -50.310  0.0000E+00  0.1200E+02
    -50.055  0.0000E+00  0.1200E+02
    -49.800  0.0000E+00  0.1200E+02
    -49.545  0.0000E+00  0.1200E+02
    -49.290  0.0000E+00  0.1200E+02
    -49.035  0.0000E+00  0.1200E+02
    -48.781  0.0000E+00  0.1200E+02
    -48.526  0.0000E+00  0.1200E+02
    -48.271  0.0000E+00  0.1200E+02
    -48.016  0.0000E+00  0.1200E+02
    -47.761  0.0000E+00  0.1200E+02
    -47.506  0.0000E+00  0.1200E+02
    -47.251  0.0000E+00  0.1200E+02
    -46.996  0.0000E+00  0.1200E+02
    -46.741  0.0000E+00  0.1200E+02
    -46.486  0.0000E+00  0.1200E+02
    -46.231  0.0000E+00  0.1200E+02
    -45.977  0.0000E+00  0.1200E+02
    -45.722  0.0000E+00  0.1200E+02
    -45.467  0.0000E+00  0.1200E+02
    -45.212  0.0000E+00  0.1200E+02
    -44.957  0.0000E+00  0.1200E+02
    -44.702  0.0000E+00  0.1200E+02
    -44.447  0.0000E+00  0.1200E+02
    -44.192  0.0000E+00  0.1200E+02
    -43.937  0.0000E+00  0.1200E+02
    -43.682  0.0000E+00  0.1200E+02
    -43.427  0.0000E+00  0.1200E+02
    -43.173  0.0000E+00  0.1200E+02
    -42.918  0.0000E+00  0.1200E+02
    -42.663  0.0000E+00  0.1200E+02
    -42.408  0.0000E+00  0.1200E+02
    -42.153  0.0000E+00  0.1200E+02
    -41.898  0.0000E+00  0.1200E+02
    -41.643  0.0000E+00  0.1200E+02
    -41.388  0.0000E+00  0.1200E+02
    -41.133  0.0000E+00  0.1200E+02
    -40.878  0.0000E+00  0.1200E+02
    -40.623  0.0000E+00  0.1200E+02
    -40.368  0.0000E+00  0.1200E+02
    -40.114  0.0000E+00  0.1200E+02
    -39.859  0.0000E+00  0.1200E+02
    -39.604  0.0000E+00  0.1200E+02
    -39.349  0.0000E+00  0.1200E+02
    -39.094  0.0000E+00  0.1200E+02
    -38.839  0.0000E+00  0.1200E+02
    -38.584  0.0000E+00  0.1200E+02
    -38.329  0.0000E+00  0.1200E+02
    -38.074  0.0000E+00  0.1200E+02
    -37.819  0.0000E+00  0.1200E+02
    -37.564  0.0000E+00  0.1200E+02
    -37.310  0.0000E+00  0.1200E+02
    -37.055  0.0000E+00  0.1200E+02
    -36.800  0.0000E+00  0.1200E+02
    -36.545  0.0000E+00  0.1200E+02
    -36.290  0.0000E+00  0.1200E+02
    -36.035  0.0000E+00  0.1200E+02
    -35.780  0.0000E+00  0.1200E+02
    -35.525  0.0000E+00  0.1200E+02
    -35.270  0.0000E+00  0.1200E+02
    -35.015  0.0000E+00  0.1200E+02
    -34.760  0.0000E+00  0.1200E+02
    -34.506  0.0000E+00  0.1200E+02
    -34.251  0.0000E+00  0.1200E+02
    -33.996  0.0000E+00  0.1200E+02
    -33.741  0.0000E+00  0.1200E+02
    -33.486  0.0000E+00  0.1200E+02
    -33.231  0.0000E+00  0.1200E+02
    -32.976  0.0000E+00  0.1200E+02
    -32.721  0.0000E+00  0.1200E+02
    -32.466  0.0000E+00  0.1200E+02
    -32.211  0.0000E+00  0.1200E+02
    -31.956  0.0000E+00  0.1200E+02
    -31.702  0.8912E+02  0.1823E+02
    -31.447  0.0000E+00  0.4800E+02
    -31.192  0.0000E+00  0.4800E+02
    -30.937  0.0000E+00  0.4800E+02
    -30.682  0.0000E+00  0.4800E+02
    -30.427  0.0000E+00  0.4800E+02
    -30.172  0.0000E+00  0.4800E+02
    -29.917  0.0000E+00  0.4800E+02
    -29.662  0.0000E+00  0.4800E+02
    -29.407  0.0000E+00  0.4800E+02
    -29.152  0.0000E+00  0.4800E+02
    -28.898  0.0000E+00  0.4800E+02
    -28.643  0.0000E+00  0.4800E+02
    -28.388  0.0000E+00  0.4800E+02
    -28.133  0.0000E+00  0.4800E+02
    -27.878  0.0000E+00  0.4800E+02
    -27.623  0.0000E+00  0.4800E+02
    -27.368  0.0000E+00  0.4800E+02
    -27.113  0.0000E+00  0.4800E+02
    -26.858  0.0000E+00  0.4800E+02
    -26.603  0.0000E+00  0.4800E+02
    -26.348  0.0000E+00  0.4800E+02
    -26.094  0.0000E+00  0.4800E+02
    -25.839  0.0000E+00  0.4800E+02
    -25.584  0.0000E+00  0.4800E+02
    -25.329  0.0000E+00  0.4800E+02
    -25.074  0.0000E+00  0.4800E+02
    -24.819  0.0000E+00  0.4800E+02
    -24.564  0.0000E+00  0.4800E+02
    -24.309  0.0000E+00  0.4800E+02
    -24.054  0.0000E+00  0.4800E+02
    -23.799  0.0000E+00  0.4800E+02
    -23.544  0.0000E+00  0.4800E+02
    -23.289  0.0000E+00  0.4800E+02
    -23.035  0.0000E+00  0.4800E+02
    -22.780  0.0000E+00  0.4800E+02
    -22.525  0.0000E+00  0.4800E+02
    -22.270  0.0000E+00  0.4800E+02
    -22.015  0.0000E+00  0.4800E+02
    -21.760  0.0000E+00  0.4800E+02
    -21.505  0.0000E+00  0.4800E+02
    -21.250  0.0000E+00  0.4800E+02
    -20.995  0.0000E+00  0.4800E+02
    -20.740  0.0000E+00  0.4800E+02
    -20.485  0.0000E+00  0.4800E+02
    -20.231  0.0000E+00  0.4800E+02
    -19.976  0.0000E+00  0.4800E+02
    -19.721  0.0000E+00  0.4800E+02
    -19.466  0.0000E+00  0.4800E+02
    -19.211  0.0000E+00  0.4800E+02
    -18.956  0.0000E+00  0.4800E+02
    -18.701  0.0000E+00  0.4800E+02
    -18.446  0.0000E+00  0.4800E+02
    -18.191  0.0000E+00  0.4800E+02
    -17.936  0.0000E+00  0.4800E+02
    -17.681  0.0000E+00  0.4800E+02
    -17.427  0.0000E+00  0.4800E+02
    -17.172  0.0000E+00  0.4800E+02
    -16.917  0.0000E+00  0.4800E+02
    -16.662  0.0000E+00  0.4800E+02
    -16.407  0.0000E+00  0.4800E+02
    -16.152  0.0000E+00  0.4800E+02
    -15.897  0.0000E+00  0.4800E+02
    -15.642  0.0000E+00  0.4800E+02
    -15.387  0.0000E+00  0.4800E+02
    -15.132  0.0000E+00  0.4800E+02
    -14.877  0.0000E+00  0.4800E+02
    -14.623  0.0000E+00  0.4800E+02
    -14.368  0.0000E+00  0.4800E+02
    -14.113  0.0000E+00  0.4800E+02
    -13.858  0.0000E+00  0.4800E+02
    -13.603  0.0000E+00  0.4800E+02
    -13.348  0.0000E+00  0.4800E+02
    -13.093  0.0000E+00  0.4800E+02
    -12.838  0.0000E+00  0.4800E+02
    -12.583  0.0000E+00  0.4800E+02
    -12.328  0.0000E+00  0.4800E+02
    -12.073  0.0000E+00  0.4800E+02
    -11.819  0.0000E+00  0.4800E+02
    -11.564  0.0000E+00  0.4800E+02
    -11.309  0.0000E+00  0.4800E+02
    -11.054  0.0000E+00  0.4800E+02
    -10.799  0.2206E+01  0.4831E+02
    -10.544  0.3605E+01  0.4915E+02
    -10.289  0.3919E+01  0.5010E+02
    -10.034  0.5250E+01  0.5119E+02
     -9.779  0.9049E+01  0.5300E+02
     -9.524  0.1359E+02  0.5599E+02
     -9.269  0.1983E+02  0.6008E+02
     -9.014  0.2949E+02  0.6658E+02
     -8.760  0.0000E+00  0.7200E+02
     -8.505  0.0000E+00  0.7200E+02
     -8.250  0.0000E+00  0.7200E+02
     -7.995  0.0000E+00  0.7200E+02
     -7.740  0.0000E+00  0.7200E+02
     -7.485  0.0000E+00  0.7200E+02
     -7.230  0.0000E+00  0.7200E+02
     -6.975  0.0000E+00  0.7200E+02
     -6.720  0.0000E+00  0.7200E+02
     -6.465  0.0000E+00  0.7200E+02
     -6.210  0.0000E+00  0.7200E+02
     -5.956  0.0000E+00  0.7200E+02
     -5.701  0.0000E+00  0.7200E+02
     -5.446  0.0000E+00  0.7200E+02
     -5.191  0.0000E+00  0.7200E+02
     -4.936  0.0000E+00  0.7200E+02
     -4.681  0.0000E+00  0.7200E+02
     -4.426  0.0000E+00  0.7200E+02
     -4.171  0.0000E+00  0.7200E+02
     -3.916  0.0000E+00  0.7200E+02
     -3.661  0.0000E+00  0.7200E+02
     -3.406  0.0000E+00  0.7200E+02
     -3.152  0.0000E+00  0.7200E+02
     -2.897  0.0000E+00  0.7200E+02
     -2.642  0.0000E+00  0.7200E+02
     -2.387  0.2691E+01  0.7223E+02
     -2.132  0.7882E+01  0.7350E+02
     -1.877  0.1066E+02  0.7578E+02
     -1.622  0.1514E+02  0.7993E+02
     -1.367  0.1925E+02  0.8569E+02
     -1.112  0.1023E+02  0.8890E+02
     -0.857  0.5419E+01  0.9079E+02
     -0.602  0.1262E+02  0.9331E+02
     -0.348  0.1674E+02  0.9814E+02
     -0.093  0.9653E+01  0.1029E+03
      0.162  0.1241E+02  0.1057E+03
      0.417  0.2074E+02  0.1094E+03
      0.672  0.1450E+02  0.1153E+03
      0.927  0.9995E+01  0.1182E+03
      1.182  0.8452E+01  0.1206E+03
      1.437  0.2266E+02  0.1257E+03
      1.692  0.2731E+02  0.1319E+03
      1.947  0.1611E+02  0.1364E+03
      2.202  0.1816E+02  0.1406E+03
      2.456  0.1042E+02  0.1435E+03
      2.711  0.2137E+02  0.1488E+03
      2.966  0.1193E+02  0.1529E+03
      3.221  0.1094E+02  0.1552E+03
      3.476  0.1084E+01  0.1558E+03
      3.731  0.0000E+00  0.1560E+03
      3.986  0.0000E+00  0.1560E+03
      4.241  0.0000E+00  0.1560E+03
      4.496  0.0000E+00  0.1560E+03
      4.751  0.4068E+01  0.1565E+03
      5.006  0.1541E+02  0.1595E+03
      5.260  0.1799E+02  0.1649E+03
      5.515  0.3453E+02  0.1715E+03
      5.770  0.1659E+02  0.1780E+03
      6.025  0.1774E+02  0.1833E+03
      6.280  0.1594E+02  0.1876E+03
      6.535  0.8699E+01  0.1909E+03
      6.790  0.8027E+01  0.1931E+03
      7.045  0.1346E+02  0.1968E+03
      7.300  0.1025E+02  0.2001E+03
      7.555  0.5201E+01  0.2026E+03
      7.810  0.4010E+01  0.2039E+03
      8.065  0.5620E-01  0.2040E+03
      8.319  0.6220E+00  0.2041E+03
      8.574  0.9085E+00  0.2043E+03
      8.829  0.2097E+01  0.2047E+03
      9.084  0.4472E+01  0.2055E+03
      9.339  0.5950E+01  0.2069E+03
      9.594  0.6622E+01  0.2086E+03
      9.849  0.7254E+01  0.2105E+03
     10.104  0.6830E+01  0.2124E+03
     10.359  0.6672E+01  0.2139E+03
     10.614  0.8925E+01  0.2160E+03
     10.869  0.1090E+02  0.2187E+03
     11.123  0.9864E+01  0.2213E+03
     11.378  0.5670E+01  0.2231E+03
     11.633  0.1112E+01  0.2236E+03
     11.888  0.6747E+00  0.2239E+03
     12.143  0.0000E+00  0.2240E+03
     12.398  0.0000E+00  0.2240E+03
     12.653  0.0000E+00  0.2240E+03
     12.908  0.0000E+00  0.2240E+03
     13.163  0.0000E+00  0.2240E+03
     13.418  0.0000E+00  0.2240E+03
     13.673  0.0000E+00  0.2240E+03
     13.927  0.0000E+00  0.2240E+03
     14.182  0.0000E+00  0.2240E+03
     14.437  0.0000E+00  0.2240E+03
     14.692  0.0000E+00  0.2240E+03
     14.947  0.0000E+00  0.2240E+03
     15.202  0.0000E+00  0.2240E+03
     15.457  0.0000E+00  0.2240E+03
