       N       E                     dE             d eps       ncg     rms          rms(c)
DAV:   1     0.103844483496E+04    0.10384E+04   -0.66790E+04  9464   0.935E+02
DAV:   2    -0.460774352669E+02   -0.10845E+04   -0.10500E+04 12012   0.373E+02
DAV:   3    -0.138330211441E+03   -0.92253E+02   -0.90951E+02 11424   0.102E+02
DAV:   4    -0.142305638326E+03   -0.39754E+01   -0.39567E+01 13972   0.242E+01
DAV:   5    -0.142337262482E+03   -0.31624E-01   -0.31586E-01 11284   0.194E+00    0.238E+01
DAV:   6    -0.130691248870E+03    0.11646E+02   -0.82743E+01 13692   0.364E+01    0.140E+01
DAV:   7    -0.124825146044E+03    0.58661E+01   -0.29628E+01 13468   0.205E+01    0.687E+00
DAV:   8    -0.124445549138E+03    0.37960E+00   -0.29263E+00 12740   0.659E+00    0.125E+00
DAV:   9    -0.124420612728E+03    0.24936E-01   -0.21574E-01 11200   0.191E+00    0.616E-01
DAV:  10    -0.124415510408E+03    0.51023E-02   -0.31982E-02 12964   0.780E-01    0.279E-01
DAV:  11    -0.124414878983E+03    0.63142E-03   -0.73557E-03 11200   0.336E-01    0.132E-01
DAV:  12    -0.124414494894E+03    0.38409E-03   -0.18752E-03 11648   0.206E-01    0.547E-02
DAV:  13    -0.124414414019E+03    0.80875E-04   -0.41726E-04 10164   0.628E-02    0.227E-02
DAV:  14    -0.124414413415E+03    0.60454E-06   -0.65601E-05 11396   0.342E-02    0.155E-02
DAV:  15    -0.124414423049E+03   -0.96342E-05   -0.29045E-05 10108   0.221E-02    0.669E-03
DAV:  16    -0.124414442284E+03   -0.19235E-04   -0.10958E-05 10780   0.108E-02    0.449E-03
DAV:  17    -0.124414472309E+03   -0.30024E-04   -0.69501E-06 10416   0.709E-03    0.307E-03
DAV:  18    -0.124414490888E+03   -0.18580E-04   -0.26309E-06 10584   0.383E-03    0.201E-03
DAV:  19    -0.124414515817E+03   -0.24928E-04   -0.17565E-06 10360   0.289E-03    0.120E-03
DAV:  20    -0.124414530621E+03   -0.14805E-04   -0.81350E-07 10640   0.197E-03    0.873E-04
DAV:  21    -0.124414544533E+03   -0.13911E-04   -0.12149E-07 10864   0.111E-03    0.599E-04
DAV:  22    -0.124414561587E+03   -0.17054E-04   -0.25160E-07  9660   0.918E-04    0.296E-04
DAV:  23    -0.124414566857E+03   -0.52696E-05   -0.81040E-08  9156   0.475E-04    0.123E-04
DAV:  24    -0.124414568237E+03   -0.13800E-05   -0.17488E-08  8708   0.272E-04    0.655E-05
DAV:  25    -0.124414568534E+03   -0.29722E-06   -0.32423E-09  7644   0.149E-04    0.372E-05
DAV:  26    -0.124414568644E+03   -0.10967E-06   -0.15723E-09  7364   0.117E-04    0.184E-05
DAV:  27    -0.124414568661E+03   -0.17006E-07   -0.31953E-10  7308   0.720E-05    0.885E-06
DAV:  28    -0.124414568662E+03   -0.17517E-08   -0.13620E-10  6972   0.443E-05
   1 F= -.13000923E+03 E0= -.13000923E+03  d E =0.000000E+00
 Linear response reoptimize wavefunctions
DAV:   1    -0.124414568663E+03    0.55947E+01   -0.65708E-11  6832   0.519E-05
DAV:   2    -0.124414568663E+03    0.16735E-09    0.98162E-12  7252   0.216E-05
DAV:   3    -0.124414568663E+03   -0.17462E-09    0.13097E-11  7224   0.131E-05
 Linear response G [H, r] |phi>, progress :
  Direction:   1
       N       E                     dE             d eps       ncg     rms
RMM:   1    -0.623861876899E+03   -0.62386E+03   -0.23404E+00 11679   0.468E+02
RMM:   2    -0.659973315214E+03   -0.36111E+02   -0.61065E+02 13090   0.599E+01
RMM:   3    -0.674139656045E+03   -0.14166E+02   -0.40960E+01 14083   0.155E+01
RMM:   4    -0.675013188564E+03   -0.87353E+00   -0.20648E+00 16148   0.360E+00
RMM:   5    -0.675075909441E+03   -0.62721E-01   -0.23614E-01 16104   0.104E+00
RMM:   6    -0.675080452220E+03   -0.45428E-02   -0.22257E-02 17162   0.334E-01
RMM:   7    -0.675081288881E+03   -0.83666E-03   -0.32548E-03 17163   0.110E-01
RMM:   8    -0.675081434526E+03   -0.14565E-03   -0.84394E-04 17748   0.403E-02
RMM:   9    -0.675081475435E+03   -0.40909E-04   -0.69684E-04 19398   0.177E-02
RMM:  10    -0.675081478038E+03   -0.26027E-05   -0.62813E-04 20518   0.104E-02
RMM:  11    -0.675081463488E+03    0.14550E-04   -0.46814E-04 21074   0.844E-03
RMM:  12    -0.675081485923E+03   -0.22435E-04   -0.68986E-04 21263   0.796E-03
RMM:  13    -0.675081450658E+03    0.35265E-04   -0.33697E-04 21315   0.784E-03
 Linear response G [H, r] |phi>, progress :
  Direction:   2
       N       E                     dE             d eps       ncg     rms
RMM:   1    -0.597900667273E+03   -0.59790E+03    0.78921E+01 11416   0.473E+02
RMM:   2    -0.698636504357E+03   -0.10074E+03   -0.69690E+02 13015   0.629E+01
RMM:   3    -0.715021174178E+03   -0.16385E+02   -0.46319E+01 14020   0.161E+01
RMM:   4    -0.716160884917E+03   -0.11397E+01   -0.22581E+00 16014   0.363E+00
RMM:   5    -0.716216526412E+03   -0.55641E-01   -0.20524E-01 15984   0.105E+00
RMM:   6    -0.716222286546E+03   -0.57601E-02   -0.17327E-02 17156   0.331E-01
RMM:   7    -0.716223188059E+03   -0.90151E-03    0.97548E-05 17077   0.109E-01
RMM:   8    -0.716223913356E+03   -0.72530E-03   -0.40343E-03 17819   0.399E-02
RMM:   9    -0.716224426901E+03   -0.51355E-03   -0.87007E-03 19303   0.171E-02
RMM:  10    -0.716224071183E+03    0.35572E-03   -0.50765E-03 20534   0.101E-02
RMM:  11    -0.716224486897E+03   -0.41571E-03   -0.92240E-03 21114   0.847E-03
RMM:  12    -0.716224120960E+03    0.36594E-03   -0.55631E-03 21415   0.807E-03
RMM:  13    -0.716224121981E+03   -0.10211E-05   -0.55731E-03 21428   0.798E-03
 Linear response G [H, r] |phi>, progress :
  Direction:   3
       N       E                     dE             d eps       ncg     rms
RMM:   1    -0.595364658901E+03   -0.59536E+03    0.70362E+02 12630   0.469E+02
RMM:   2    -0.681449829873E+03   -0.86085E+02   -0.55581E+02 12929   0.580E+01
RMM:   3    -0.694237236321E+03   -0.12787E+02   -0.37458E+01 13526   0.156E+01
RMM:   4    -0.695074366741E+03   -0.83713E+00   -0.25566E+00 15732   0.376E+00
RMM:   5    -0.695130864076E+03   -0.56497E-01   -0.32966E-01 15857   0.109E+00
RMM:   6    -0.695135472990E+03   -0.46089E-02   -0.36999E-02 16077   0.334E-01
RMM:   7    -0.695136278778E+03   -0.80579E-03   -0.62348E-03 16348   0.111E-01
RMM:   8    -0.695136398347E+03   -0.11957E-03   -0.11006E-03 17342   0.407E-02
RMM:   9    -0.695136423632E+03   -0.25286E-04   -0.30518E-04 19174   0.177E-02
RMM:  10    -0.695136422872E+03    0.75997E-06   -0.12831E-04 20410   0.107E-02
RMM:  11    -0.695136425814E+03   -0.29414E-05   -0.12714E-04 20799   0.884E-03
RMM:  12    -0.695136427840E+03   -0.20262E-05   -0.14189E-04 20927   0.833E-03
RMM:  13    -0.695136427549E+03    0.29148E-06   -0.13818E-04 20871   0.824E-03
 Linear response to external field (no local field effect), progress :
  Direction:   1
       N       E                     dE             d eps       ncg     rms          rms(c)
RMM:   1    -0.130201765798E+02   -0.13020E+02   -0.86260E+01 19880   0.857E+00
RMM:   2    -0.168896938458E+02   -0.38695E+01    0.66083E-01 11704   0.236E+00
RMM:   3    -0.170843017918E+02   -0.19461E+00   -0.17152E-01 14095   0.599E-01
RMM:   4    -0.170911469319E+02   -0.68451E-02   -0.10017E-02 14237   0.144E-01
RMM:   5    -0.170915209778E+02   -0.37405E-03   -0.12403E-03 15269   0.476E-02
RMM:   6    -0.170915769466E+02   -0.55969E-04   -0.13142E-04 15271   0.148E-02
RMM:   7    -0.170915840548E+02   -0.71082E-05   -0.24676E-05 15171   0.507E-03
RMM:   8    -0.170915848701E+02   -0.81530E-06   -0.42198E-06 14451   0.184E-03
RMM:   9    -0.170915849954E+02   -0.12529E-06   -0.13397E-06 14669   0.798E-04
RMM:  10    -0.170915850093E+02   -0.13869E-07   -0.72805E-07 14027   0.459E-04
RMM:  11    -0.170915850107E+02   -0.14533E-08   -0.61311E-07 13744   0.353E-04
RMM:  12    -0.170915850120E+02   -0.12870E-08   -0.60088E-07 13214   0.319E-04
RMM:  13    -0.170915850118E+02    0.23248E-09   -0.59376E-07 12861   0.308E-04
RMM:  14    -0.170915850118E+02   -0.31047E-10   -0.59311E-07 12302   0.305E-04
 Linear response to external field (no local field effect), progress :
  Direction:   2
       N       E                     dE             d eps       ncg     rms          rms(c)
RMM:   1    -0.135495164728E+02   -0.13550E+02   -0.87731E+01 19816   0.870E+00
RMM:   2    -0.170105752980E+02   -0.34611E+01    0.86823E-01 11681   0.239E+00
RMM:   3    -0.172181273324E+02   -0.20755E+00   -0.16216E-01 13950   0.614E-01
RMM:   4    -0.172254932817E+02   -0.73659E-02   -0.97176E-03 14248   0.148E-01
RMM:   5    -0.172258789959E+02   -0.38571E-03   -0.12566E-03 15008   0.501E-02
RMM:   6    -0.172259417394E+02   -0.62743E-04   -0.13735E-04 15347   0.153E-02
RMM:   7    -0.172259478845E+02   -0.61452E-05   -0.19774E-05 14947   0.520E-03
RMM:   8    -0.172259487510E+02   -0.86646E-06   -0.35399E-06 14288   0.188E-03
RMM:   9    -0.172259488652E+02   -0.11418E-06   -0.13625E-06 14347   0.830E-04
RMM:  10    -0.172259488786E+02   -0.13379E-07   -0.92040E-07 13818   0.488E-04
RMM:  11    -0.172259488816E+02   -0.30882E-08   -0.85868E-07 13479   0.381E-04
RMM:  12    -0.172259488823E+02   -0.65740E-09   -0.84769E-07 12969   0.348E-04
RMM:  13    -0.172259488824E+02   -0.10148E-09   -0.84529E-07 12632   0.337E-04
RMM:  14    -0.172259488826E+02   -0.22158E-09   -0.84684E-07 12151   0.334E-04
 Linear response to external field (no local field effect), progress :
  Direction:   3
       N       E                     dE             d eps       ncg     rms          rms(c)
RMM:   1    -0.886156491921E+01   -0.88616E+01   -0.48126E+01 19312   0.798E+00
RMM:   2    -0.103193834613E+02   -0.14578E+01   -0.93105E-04 10920   0.214E+00
RMM:   3    -0.103942951507E+02   -0.74912E-01   -0.87112E-02 13482   0.524E-01
RMM:   4    -0.103979792752E+02   -0.36841E-02   -0.40496E-03 14403   0.127E-01
RMM:   5    -0.103982034299E+02   -0.22415E-03   -0.67297E-04 14178   0.400E-02
RMM:   6    -0.103982287859E+02   -0.25356E-04   -0.47877E-05 15157   0.118E-02
RMM:   7    -0.103982313328E+02   -0.25470E-05   -0.82529E-06 14240   0.392E-03
RMM:   8    -0.103982316146E+02   -0.28175E-06   -0.22384E-06 14034   0.139E-03
RMM:   9    -0.103982316520E+02   -0.37424E-07   -0.17118E-06 13528   0.634E-04
RMM:  10    -0.103982316550E+02   -0.29612E-08   -0.16209E-06 13432   0.414E-04
RMM:  11    -0.103982316556E+02   -0.62707E-09   -0.16127E-06 13253   0.356E-04
RMM:  12    -0.103982316560E+02   -0.38430E-09   -0.16151E-06 12710   0.341E-04
RMM:  13    -0.103982316561E+02   -0.62073E-10   -0.16153E-06 12343   0.338E-04
 Linear response to external field, progress :
  Direction:   1
       N       E                     dE             d eps       ncg     rms          rms(c)
RMM:   1    -0.133281455144E+02   -0.13328E+02   -0.87428E+01 48435   0.859E+00
RMM:   2    -0.169464231125E+02   -0.36183E+01    0.81134E-01 28954   0.234E+00    0.859E+00
RMM:   3    -0.165200865106E+02    0.42634E+00   -0.46946E-01 32694   0.265E+00    0.455E+00
RMM:   4    -0.168971868774E+02   -0.37710E+00   -0.28145E-01 33204   0.250E+00    0.735E-01
RMM:   5    -0.170433068650E+02   -0.14612E+00   -0.24208E-02 35039   0.654E-01    0.105E-01
RMM:   6    -0.170558464588E+02   -0.12540E-01    0.10599E-02 36150   0.122E-01    0.505E-02
RMM:   7    -0.170539634228E+02    0.18830E-02    0.62773E-02 35462   0.475E-02    0.236E-02
RMM:   8    -0.170631969519E+02   -0.92335E-02   -0.20378E-02 37737   0.185E-02    0.932E-03
RMM:   9    -0.170620654479E+02    0.11315E-02    0.12324E-05 34200   0.945E-03    0.310E-03
RMM:  10    -0.170623844549E+02   -0.31901E-03   -0.61290E-05 36980   0.297E-03    0.103E-03
RMM:  11    -0.170624327814E+02   -0.48327E-04    0.27358E-06 36885   0.128E-03    0.467E-04
RMM:  12    -0.170624741371E+02   -0.41356E-04   -0.41332E-05 37173   0.661E-04    0.194E-04
RMM:  13    -0.170624852519E+02   -0.11115E-04   -0.85552E-05 37802   0.423E-04    0.587E-05
RMM:  14    -0.170624823777E+02    0.28742E-05   -0.61027E-05 39586   0.349E-04    0.292E-05
RMM:  15    -0.170624795978E+02    0.27800E-05   -0.35602E-05 33613   0.316E-04    0.143E-05
RMM:  16    -0.170624794203E+02    0.17752E-06   -0.35284E-05 32732   0.315E-04    0.600E-06
 Linear response to external field, progress :
  Direction:   2
       N       E                     dE             d eps       ncg     rms          rms(c)
RMM:   1    -0.133467386406E+02   -0.13347E+02   -0.87614E+01 48744   0.859E+00
RMM:   2    -0.169622721873E+02   -0.36155E+01    0.66189E-01 28975   0.234E+00    0.859E+00
RMM:   3    -0.165184453700E+02    0.44383E+00   -0.44283E-01 32749   0.265E+00    0.455E+00
RMM:   4    -0.169145034256E+02   -0.39606E+00   -0.45359E-01 33305   0.250E+00    0.735E-01
RMM:   5    -0.170378306594E+02   -0.12333E+00    0.25082E-02 34974   0.656E-01    0.124E-01
RMM:   6    -0.170640033908E+02   -0.26173E-01   -0.85250E-02 35473   0.139E-01    0.745E-02
RMM:   7    -0.170535591011E+02    0.10444E-01    0.53099E-02 34598   0.565E-02    0.320E-02
RMM:   8    -0.170614703384E+02   -0.79112E-02   -0.34764E-03 36835   0.265E-02    0.974E-03
RMM:   9    -0.170628833822E+02   -0.14130E-02   -0.95110E-03 34864   0.108E-02    0.421E-03
RMM:  10    -0.170622114893E+02    0.67189E-03    0.10257E-03 36415   0.376E-03    0.185E-03
RMM:  11    -0.170624855656E+02   -0.27408E-03   -0.10040E-03 37064   0.170E-03    0.815E-04
RMM:  12    -0.170624389676E+02    0.46598E-04    0.23958E-04 36928   0.971E-04    0.313E-04
RMM:  13    -0.170624870825E+02   -0.48115E-04   -0.94321E-05 37799   0.495E-04    0.108E-04
RMM:  14    -0.170624857352E+02    0.13473E-05   -0.69032E-05 38985   0.370E-04    0.469E-05
RMM:  15    -0.170624858190E+02   -0.83816E-07   -0.77641E-05 37322   0.332E-04    0.168E-05
RMM:  16    -0.170624806628E+02    0.51562E-05   -0.24836E-05 32643   0.311E-04    0.800E-06
 Linear response to external field, progress :
  Direction:   3
       N       E                     dE             d eps       ncg     rms          rms(c)
RMM:   1    -0.886156491921E+01   -0.88616E+01   -0.48126E+01 19312   0.798E+00
RMM:   2    -0.103193834613E+02   -0.14578E+01   -0.93105E-04 10920   0.214E+00    0.719E+00
RMM:   3    -0.702986173227E+01    0.32895E+01   -0.34572E+01 12661   0.408E+00    0.214E+00
RMM:   4    -0.432028739756E+01    0.27096E+01   -0.60650E+00 13622   0.128E+00    0.115E+00
RMM:   5    -0.552015515791E+01   -0.11999E+01   -0.22524E+01 13070   0.835E-01    0.768E-01
RMM:   6    -0.391234366004E+01    0.16078E+01   -0.88526E+00 13273   0.627E-01    0.403E-01
RMM:   7    -0.338286948517E+01    0.52947E+00   -0.45536E+00 14457   0.266E-01    0.322E-01
RMM:   8    -0.420783468516E+01   -0.82497E+00   -0.13536E+01 13692   0.248E-01    0.164E-01
RMM:   9    -0.377361783676E+01    0.43422E+00   -0.93531E+00 13790   0.167E-01    0.799E-02
RMM:  10    -0.317036871877E+01    0.60325E+00   -0.33687E+00 14498   0.735E-02    0.409E-02
RMM:  11    -0.289057334475E+01    0.27980E+00   -0.57663E-01 14047   0.267E-02    0.313E-02
RMM:  12    -0.284726960585E+01    0.43304E-01   -0.13442E-01 12688   0.354E-02    0.184E-02
RMM:  13    -0.283870791421E+01    0.85617E-02   -0.38846E-02 13160   0.183E-02    0.127E-02
RMM:  14    -0.283759694246E+01    0.11110E-02   -0.11136E-02 12658   0.187E-02    0.691E-03
RMM:  15    -0.283619619303E+01    0.14007E-02    0.10284E-02 13177   0.959E-03    0.338E-03
RMM:  16    -0.283670594637E+01   -0.50975E-03    0.72731E-03 13129   0.570E-03    0.188E-03
RMM:  17    -0.283763027929E+01   -0.92433E-03   -0.13919E-03 13218   0.332E-03    0.111E-03
RMM:  18    -0.283670631895E+01    0.92396E-03    0.81396E-03 13173   0.269E-03    0.478E-04
RMM:  19    -0.283662517274E+01    0.81146E-04    0.89412E-03 13437   0.124E-03    0.191E-04
RMM:  20    -0.283741003332E+01   -0.78486E-03    0.99976E-04 13989   0.538E-04    0.660E-05
RMM:  21    -0.283735290679E+01    0.57127E-04    0.15601E-03 13989   0.251E-04    0.294E-05
RMM:  22    -0.283735186508E+01    0.10417E-05    0.15674E-03 13741   0.191E-04    0.142E-05
RMM:  23    -0.283735831486E+01   -0.64498E-05    0.14922E-03 13520   0.189E-04    0.607E-06
