 vasp.5.4.1 24Jun15 (build Apr 13 2016 13:07:19) complex                        
  
 executed on           IFC91_ompi date 2019.09.13  21:55:18
 running on   28 total cores
 distrk:  each k-point on   28 cores,    1 groups
 distr:  one band on NCORES_PER_BAND=   1 cores,   28 groups


--------------------------------------------------------------------------------------------------------


 INCAR:
 POTCAR:    PAW_PBE Mo_sv_GW 05Dec2013            
 POTCAR:    PAW_PBE Se_GW 20Mar2012               

 ----------------------------------------------------------------------------- 
|                                                                             |
|           W    W    AA    RRRRR   N    N  II  N    N   GGGG   !!!           |
|           W    W   A  A   R    R  NN   N  II  NN   N  G    G  !!!           |
|           W    W  A    A  R    R  N N  N  II  N N  N  G       !!!           |
|           W WW W  AAAAAA  RRRRR   N  N N  II  N  N N  G  GGG   !            |
|           WW  WW  A    A  R   R   N   NN  II  N   NN  G    G                |
|           W    W  A    A  R    R  N    N  II  N    N   GGGG   !!!           |
|                                                                             |
|      For optimal performance we recommend to set                            |
|        NCORE= 4 - approx SQRT( number of cores)                             |
|      NCORE specifies how many cores store one orbital (NPAR=cpu/NCORE).     |
|      This setting can  greatly improve the performance of VASP for DFT.     |
|      The default, NPAR=number of cores might be grossly inefficient         |
|      on modern multi-core architectures or massively parallel machines.     |
|      Do your own testing !!!!                                               |
|      Unfortunately you need to use the default for GW and RPA calculations. |
|      (for HF NCORE is supported but not extensively tested yet)             |
|                                                                             |
 ----------------------------------------------------------------------------- 

 POTCAR:    PAW_PBE Mo_sv_GW 05Dec2013            
   VRHFIN =Mo: 4s4p5s4d                                                         
   LEXCH  = PE                                                                  
   EATOM  =  1861.5185 eV,  136.8178 Ry                                         
                                                                                
   TITEL  = PAW_PBE Mo_sv_GW 05Dec2013                                          
   LULTRA =        F    use ultrasoft PP ?                                      
   IUNSCR =        1    unscreen: 0-lin 1-nonlin 2-no                           
   RPACOR =    2.000    partial core radius                                     
   POMASS =   95.940; ZVAL   =   14.000    mass and valenz                      
   RCORE  =    2.100    outmost cutoff radius                                   
   RWIGS  =    2.100; RWIGS  =    1.111    wigner-seitz radius (au A)           
   ENMAX  =  344.914; ENMIN  =  258.686 eV                                      
   RCLOC  =    1.508    cutoff for local pot                                    
   LCOR   =        T    correct aug charges                                     
   LPAW   =        T    paw PP                                                  
   EAUG   =  964.741                                                            
   DEXC   =    0.000                                                            
   RMAX   =    2.149    core radius for proj-oper                               
   RAUG   =    1.300    factor for augmentation sphere                          
   RDEP   =    2.179    radius for radial grids                                 
   RDEPT  =    1.677    core radius for aug-charge                              
                                                                                
   Atomic configuration                                                         
   12 entries                                                                   
     n  l   j            E        occ.                                          
     1  0  0.50    -19816.9363   2.0000                                         
     2  0  0.50     -2796.7578   2.0000                                         
     2  1  1.50     -2499.7842   6.0000                                         
     3  0  0.50      -474.2095   2.0000                                         
     3  1  1.50      -376.9135   6.0000                                         
     3  2  2.50      -218.6898  10.0000                                         
     4  0  0.50       -62.1983   2.0000                                         
     4  0  0.50       -66.6685   0.0000                                         
     4  1  1.50       -36.4414   6.0000                                         
     4  1  1.50       -40.8175   0.0000                                         
     4  2  2.50        -2.3086   6.0000                                         
     4  3  2.50        -1.3606   0.0000                                         
   Description                                                                  
     l       E           TYP  RCUT    TYP  RCUT                                 
     0    -62.1983072     23  1.950                                             
     0     27.2116520     23  1.950                                             
     0    149.6640860     23  1.950                                             
     1    -36.4413666     23  1.800                                             
     1    -40.8174780     23  1.800                                             
     1     54.4233040     23  1.800                                             
     2     -2.3085597     23  2.000                                             
     2     -6.8029130     23  2.000                                             
     2    136.0582600     23  2.000                                             
     3     13.6058260     23  2.100                                             
     3     81.6349560     23  2.100                                             
  local pseudopotential read in
  partial core-charges read in
  partial kinetic energy density read in
  kinetic energy density of atom read in
  atomic valenz-charges read in
  non local Contribution for L=           0  read in
    real space projection operators read in
  non local Contribution for L=           0  read in
    real space projection operators read in
  non local Contribution for L=           0  read in
    real space projection operators read in
  non local Contribution for L=           1  read in
    real space projection operators read in
  non local Contribution for L=           1  read in
    real space projection operators read in
  non local Contribution for L=           1  read in
    real space projection operators read in
  non local Contribution for L=           2  read in
    real space projection operators read in
  non local Contribution for L=           2  read in
    real space projection operators read in
  non local Contribution for L=           2  read in
    real space projection operators read in
  non local Contribution for L=           3  read in
    real space projection operators read in
  non local Contribution for L=           3  read in
    real space projection operators read in
    PAW grid and wavefunctions read in
 
   number of l-projection  operators is LMAX  =          11
   number of lm-projection operators is LMMAX =          41
 
 POTCAR:    PAW_PBE Se_GW 20Mar2012               
   VRHFIN =Se: s2p4                                                             
   LEXCH  = PE                                                                  
   EATOM  =   257.1286 eV,   18.8984 Ry                                         
                                                                                
   TITEL  = PAW_PBE Se_GW 20Mar2012                                             
   LULTRA =        F    use ultrasoft PP ?                                      
   IUNSCR =        1    unscreen: 0-lin 1-nonlin 2-no                           
   RPACOR =    1.900    partial core radius                                     
   POMASS =   78.960; ZVAL   =    6.000    mass and valenz                      
   RCORE  =    2.100    outmost cutoff radius                                   
   RWIGS  =    2.200; RWIGS  =    1.164    wigner-seitz radius (au A)           
   ENMAX  =  211.555; ENMIN  =  158.666 eV                                      
   ICORE  =        3    local potential                                         
   LCOR   =        T    correct aug charges                                     
   LPAW   =        T    paw PP                                                  
   EAUG   =  446.842                                                            
   DEXC   =    0.000                                                            
   RMAX   =    2.147    core radius for proj-oper                               
   RAUG   =    1.300    factor for augmentation sphere                          
   RDEP   =    2.177    radius for radial grids                                 
   RDEPT  =    1.928    core radius for aug-charge                              
                                                                                
   Atomic configuration                                                         
   10 entries                                                                   
     n  l   j            E        occ.                                          
     1  0  0.50    -12503.4788   2.0000                                         
     2  0  0.50     -1606.9547   2.0000                                         
     2  1  1.50     -1413.3140   6.0000                                         
     3  0  0.50      -213.4885   2.0000                                         
     3  1  1.50      -152.9538   6.0000                                         
     3  2  2.50       -53.1221  10.0000                                         
     4  0  0.50       -17.2865   2.0000                                         
     4  1  0.50        -6.5110   4.0000                                         
     4  2  2.50        -6.8029   0.0000                                         
     4  3  2.50        -6.8029   0.0000                                         
   Description                                                                  
     l       E           TYP  RCUT    TYP  RCUT                                 
     0    -17.2865391     23  2.100                                             
     0     68.0291300     23  2.100                                             
     1     -6.5110285     23  2.100                                             
     1     81.6349560     23  2.100                                             
     2     -6.8029130     23  2.100                                             
     3     -1.3605826      7  2.100                                             
  local pseudopotential read in
  partial core-charges read in
  partial kinetic energy density read in
  kinetic energy density of atom read in
  atomic valenz-charges read in
  non local Contribution for L=           0  read in
    real space projection operators read in
  non local Contribution for L=           0  read in
    real space projection operators read in
  non local Contribution for L=           1  read in
    real space projection operators read in
  non local Contribution for L=           1  read in
    real space projection operators read in
  non local Contribution for L=           2  read in
    real space projection operators read in
    PAW grid and wavefunctions read in
 
   number of l-projection  operators is LMAX  =           5
   number of lm-projection operators is LMMAX =          13
 

 ----------------------------------------------------------------------------- 
|                                                                             |
|  ADVICE TO THIS USER RUNNING 'VASP/VAMP'   (HEAR YOUR MASTER'S VOICE ...):  |
|                                                                             |
|      You have a (more or less) 'large supercell' and for larger cells       |
|      it might be more efficient to use real space projection opertators     |
|      So try LREAL= Auto  in the INCAR   file.                               |
|      Mind: At the moment your POTCAR file does not contain real space       |
|       projectors, and has to be modified,  BUT if you                       |
|      want to do an extremely  accurate calculation you might also keep the  |
|      reciprocal projection scheme          (i.e. LREAL=.FALSE.)             |
|                                                                             |
 ----------------------------------------------------------------------------- 

  PAW_PBE Mo_sv_GW 05Dec2013            :
 energy of atom  1       EATOM=-1861.5185
 kinetic energy error for atom=    0.1105 (will be added to EATOM!!)
  PAW_PBE Se_GW 20Mar2012               :
 energy of atom  2       EATOM= -257.1286
 kinetic energy error for atom=    0.0034 (will be added to EATOM!!)
 
 
 POSCAR: Mo Se                                   
  positions in cartesian coordinates
  No initial velocities read in
 exchange correlation table for  LEXCH =        8
   RHO(1)=    0.500       N(1)  =     2000
   RHO(2)=  100.500       N(2)  =     4000
 


--------------------------------------------------------------------------------------------------------


 ion  position               nearest neighbor table
   1  0.167  0.333  0.177-   7 2.54   8 2.54   7 2.54   8 2.54   7 2.54   8 2.54
   2  0.833  0.667  0.306-  10 2.54  10 2.54  10 2.54   9 2.54   9 2.54   9 2.54
   3  0.167  0.333  0.435-  11 2.54  12 2.54  11 2.54  12 2.54  11 2.54  12 2.54
   4  0.833  0.667  0.565-  13 2.54  14 2.54  13 2.54  14 2.54  13 2.54  14 2.54
   5  0.167  0.333  0.694-  15 2.54  15 2.54  15 2.54  16 2.54  16 2.54  16 2.54
   6  0.833  0.667  0.823-  17 2.54  18 2.54  17 2.54  18 2.54  17 2.54  18 2.54
   7  0.833  0.667  0.210-   1 2.54   1 2.54   1 2.54
   8  0.833  0.667  0.144-   1 2.54   1 2.54   1 2.54
   9  0.167  0.333  0.340-   2 2.54   2 2.54   2 2.54
  10  0.167  0.333  0.273-   2 2.54   2 2.54   2 2.54
  11  0.833  0.667  0.469-   3 2.54   3 2.54   3 2.54
  12  0.833  0.667  0.402-   3 2.54   3 2.54   3 2.54
  13  0.167  0.333  0.598-   4 2.54   4 2.54   4 2.54
  14  0.167  0.333  0.531-   4 2.54   4 2.54   4 2.54
  15  0.833  0.667  0.727-   5 2.54   5 2.54   5 2.54
  16  0.833  0.667  0.660-   5 2.54   5 2.54   5 2.54
  17  0.167  0.333  0.856-   6 2.54   6 2.54   6 2.54
  18  0.167  0.333  0.790-   6 2.54   6 2.54   6 2.54
 
  LATTYP: Found a hexagonal cell.
 ALAT       =     3.3197487879
 C/A-ratio  =    15.0613806029
  
  Lattice vectors:
  
 A1 = (   3.3197487879,   0.0000000000,   0.0000000000)
 A2 = (  -1.6598743939,   2.8749867845,   0.0000000000)
 A3 = (   0.0000000000,   0.0000000000,  50.0000000000)


Analysis of symmetry for initial positions (statically):
=====================================================================
 Subroutine PRICEL returns:
 Original cell was already a primitive cell.
 

 Routine SETGRP: Setting up the symmetry group for a 
 hexagonal supercell.


 Subroutine GETGRP returns: Found 12 space group operations
 (whereof  4 operations were pure point group operations)
 out of a pool of 24 trial point group operations.


The static configuration has the point symmetry C_2h.
 The point group associated with its full space group is D_3d.


Analysis of symmetry for dynamics (positions and initial velocities):
=====================================================================
 Subroutine PRICEL returns:
 Original cell was already a primitive cell.
 

 Routine SETGRP: Setting up the symmetry group for a 
 hexagonal supercell.


 Subroutine GETGRP returns: Found 12 space group operations
 (whereof  4 operations were pure point group operations)
 out of a pool of 24 trial point group operations.


The dynamic configuration has the point symmetry C_2h.
 The point group associated with its full space group is D_3d.


 Subroutine INISYM returns: Found 12 space group operations
 (whereof  4 operations are pure point group operations),
 and found     1 'primitive' translations

 
 
 KPOINTS: KPOINTS created by Atomic Simulation Env

Automatic generation of k-mesh.
Space group operators:
 irot       det(A)        alpha          n_x          n_y          n_z        tau_x        tau_y        tau_z
    1     1.000000     0.000000     1.000000     0.000000     0.000000     0.000000     0.000000     0.000000
    2    -1.000000     0.000000     1.000000     0.000000     0.000000     0.000000     0.000000     0.000000
    3     1.000000   180.000000     1.000000     0.000000     0.000000     0.000000     0.000000     0.000000
    4    -1.000000   180.000000     1.000000     0.000000     0.000000     0.000000     0.000000     0.000000
    5     1.000000   120.000000     0.000000     0.000000    -1.000000     0.500000     0.500000     0.000000
    6    -1.000000   120.000000     0.000000     0.000000    -1.000000     0.500000     0.500000     0.000000
    7     1.000000   120.000000     0.000000     0.000000     1.000000     0.000000     0.500000     0.000000
    8    -1.000000   120.000000     0.000000     0.000000     1.000000     0.000000     0.500000     0.000000
    9     1.000000   180.000000     0.500000    -0.866025     0.000000     0.000000     0.500000     0.000000
   10    -1.000000   180.000000     0.500000    -0.866025     0.000000     0.000000     0.500000     0.000000
   11     1.000000   180.000000    -0.500000    -0.866025     0.000000     0.500000     0.500000     0.000000
   12    -1.000000   180.000000    -0.500000    -0.866025     0.000000     0.500000     0.500000     0.000000
 
 Subroutine IBZKPT returns following result:
 ===========================================
 
 Found     37 irreducible k-points:
 
 Following reciprocal coordinates:
            Coordinates               Weight
  0.000000  0.000000  0.000000      1.000000
  0.055556  0.000000  0.000000      6.000000
  0.111111  0.000000  0.000000      6.000000
  0.166667  0.000000  0.000000      6.000000
  0.222222  0.000000  0.000000      6.000000
  0.277778  0.000000  0.000000      6.000000
  0.333333  0.000000  0.000000      6.000000
  0.388889  0.000000  0.000000      6.000000
  0.444444  0.000000  0.000000      6.000000
  0.500000  0.000000  0.000000      3.000000
  0.055556  0.055556  0.000000      6.000000
  0.111111  0.055556  0.000000     12.000000
  0.166667  0.055556  0.000000     12.000000
  0.222222  0.055556  0.000000     12.000000
  0.277778  0.055556  0.000000     12.000000
  0.333333  0.055556  0.000000     12.000000
  0.388889  0.055556  0.000000     12.000000
  0.444444  0.055556  0.000000     12.000000
  0.111111  0.111111  0.000000      6.000000
  0.166667  0.111111  0.000000     12.000000
  0.222222  0.111111  0.000000     12.000000
  0.277778  0.111111  0.000000     12.000000
  0.333333  0.111111  0.000000     12.000000
  0.388889  0.111111  0.000000     12.000000
  0.444444  0.111111  0.000000      6.000000
  0.166667  0.166667  0.000000      6.000000
  0.222222  0.166667  0.000000     12.000000
  0.277778  0.166667  0.000000     12.000000
  0.333333  0.166667  0.000000     12.000000
  0.388889  0.166667  0.000000     12.000000
  0.222222  0.222222  0.000000      6.000000
  0.277778  0.222222  0.000000     12.000000
  0.333333  0.222222  0.000000     12.000000
  0.388889  0.222222  0.000000      6.000000
  0.277778  0.277778  0.000000      6.000000
  0.333333  0.277778  0.000000     12.000000
  0.333333  0.333333  0.000000      2.000000
 
 Following cartesian coordinates:
            Coordinates               Weight
  0.000000  0.000000  0.000000      1.000000
  0.016735  0.009662  0.000000      6.000000
  0.033470  0.019324  0.000000      6.000000
  0.050205  0.028986  0.000000      6.000000
  0.066939  0.038648  0.000000      6.000000
  0.083674  0.048309  0.000000      6.000000
  0.100409  0.057971  0.000000      6.000000
  0.117144  0.067633  0.000000      6.000000
  0.133879  0.077295  0.000000      6.000000
  0.150614  0.086957  0.000000      3.000000
  0.016735  0.028986  0.000000      6.000000
  0.033470  0.038648  0.000000     12.000000
  0.050205  0.048309  0.000000     12.000000
  0.066939  0.057971  0.000000     12.000000
  0.083674  0.067633  0.000000     12.000000
  0.100409  0.077295  0.000000     12.000000
  0.117144  0.086957  0.000000     12.000000
  0.133879  0.096619  0.000000     12.000000
  0.033470  0.057971  0.000000      6.000000
  0.050205  0.067633  0.000000     12.000000
  0.066939  0.077295  0.000000     12.000000
  0.083674  0.086957  0.000000     12.000000
  0.100409  0.096619  0.000000     12.000000
  0.117144  0.106281  0.000000     12.000000
  0.133879  0.115943  0.000000      6.000000
  0.050205  0.086957  0.000000      6.000000
  0.066939  0.096619  0.000000     12.000000
  0.083674  0.106281  0.000000     12.000000
  0.100409  0.115943  0.000000     12.000000
  0.117144  0.125604  0.000000     12.000000
  0.066939  0.115943  0.000000      6.000000
  0.083674  0.125604  0.000000     12.000000
  0.100409  0.135266  0.000000     12.000000
  0.117144  0.144928  0.000000      6.000000
  0.083674  0.144928  0.000000      6.000000
  0.100409  0.154590  0.000000     12.000000
  0.100409  0.173914  0.000000      2.000000
 
 TETIRR: Found    169 inequivalent tetrahedra from     1944
 
 Subroutine IBZKPT_HF returns following result:
 ==============================================
 
 Found    324 k-points in 1st BZ
 the following    324 k-points will be used (e.g. in the exchange kernel)
 Following reciprocal coordinates:   # in IRBZ
  0.000000  0.000000  0.000000    0.00308642   1 t-inv F
  0.055556  0.000000  0.000000    0.00308642   2 t-inv F
  0.111111  0.000000  0.000000    0.00308642   3 t-inv F
  0.166667  0.000000  0.000000    0.00308642   4 t-inv F
  0.222222  0.000000  0.000000    0.00308642   5 t-inv F
  0.277778  0.000000  0.000000    0.00308642   6 t-inv F
  0.333333  0.000000  0.000000    0.00308642   7 t-inv F
  0.388889  0.000000  0.000000    0.00308642   8 t-inv F
  0.444444  0.000000  0.000000    0.00308642   9 t-inv F
  0.500000  0.000000  0.000000    0.00308642  10 t-inv F
  0.055556  0.055556  0.000000    0.00308642  11 t-inv F
  0.111111  0.055556  0.000000    0.00308642  12 t-inv F
  0.166667  0.055556  0.000000    0.00308642  13 t-inv F
  0.222222  0.055556  0.000000    0.00308642  14 t-inv F
  0.277778  0.055556  0.000000    0.00308642  15 t-inv F
  0.333333  0.055556  0.000000    0.00308642  16 t-inv F
  0.388889  0.055556  0.000000    0.00308642  17 t-inv F
  0.444444  0.055556  0.000000    0.00308642  18 t-inv F
  0.111111  0.111111  0.000000    0.00308642  19 t-inv F
  0.166667  0.111111  0.000000    0.00308642  20 t-inv F
  0.222222  0.111111  0.000000    0.00308642  21 t-inv F
  0.277778  0.111111  0.000000    0.00308642  22 t-inv F
  0.333333  0.111111  0.000000    0.00308642  23 t-inv F
  0.388889  0.111111  0.000000    0.00308642  24 t-inv F
  0.444444  0.111111  0.000000    0.00308642  25 t-inv F
  0.166667  0.166667  0.000000    0.00308642  26 t-inv F
  0.222222  0.166667  0.000000    0.00308642  27 t-inv F
  0.277778  0.166667  0.000000    0.00308642  28 t-inv F
  0.333333  0.166667  0.000000    0.00308642  29 t-inv F
  0.388889  0.166667  0.000000    0.00308642  30 t-inv F
  0.222222  0.222222  0.000000    0.00308642  31 t-inv F
  0.277778  0.222222  0.000000    0.00308642  32 t-inv F
  0.333333  0.222222  0.000000    0.00308642  33 t-inv F
  0.388889  0.222222  0.000000    0.00308642  34 t-inv F
  0.277778  0.277778  0.000000    0.00308642  35 t-inv F
  0.333333  0.277778  0.000000    0.00308642  36 t-inv F
  0.333333  0.333333  0.000000    0.00308642  37 t-inv F
 -0.055556 -0.000000 -0.000000    0.00308642   2 t-inv F
  0.055556 -0.055556 -0.000000    0.00308642   2 t-inv F
 -0.055556  0.055556  0.000000    0.00308642   2 t-inv F
  0.000000 -0.055556  0.000000    0.00308642   2 t-inv F
 -0.000000  0.055556 -0.000000    0.00308642   2 t-inv F
 -0.111111 -0.000000 -0.000000    0.00308642   3 t-inv F
  0.111111 -0.111111 -0.000000    0.00308642   3 t-inv F
 -0.111111  0.111111  0.000000    0.00308642   3 t-inv F
  0.000000 -0.111111  0.000000    0.00308642   3 t-inv F
 -0.000000  0.111111 -0.000000    0.00308642   3 t-inv F
 -0.166667 -0.000000 -0.000000    0.00308642   4 t-inv F
  0.166667 -0.166667 -0.000000    0.00308642   4 t-inv F
 -0.166667  0.166667  0.000000    0.00308642   4 t-inv F
  0.000000 -0.166667  0.000000    0.00308642   4 t-inv F
 -0.000000  0.166667 -0.000000    0.00308642   4 t-inv F
 -0.222222 -0.000000 -0.000000    0.00308642   5 t-inv F
  0.222222 -0.222222 -0.000000    0.00308642   5 t-inv F
 -0.222222  0.222222  0.000000    0.00308642   5 t-inv F
  0.000000 -0.222222  0.000000    0.00308642   5 t-inv F
 -0.000000  0.222222 -0.000000    0.00308642   5 t-inv F
 -0.277778 -0.000000 -0.000000    0.00308642   6 t-inv F
  0.277778 -0.277778 -0.000000    0.00308642   6 t-inv F
 -0.277778  0.277778  0.000000    0.00308642   6 t-inv F
  0.000000 -0.277778  0.000000    0.00308642   6 t-inv F
 -0.000000  0.277778 -0.000000    0.00308642   6 t-inv F
 -0.333333 -0.000000 -0.000000    0.00308642   7 t-inv F
  0.333333 -0.333333 -0.000000    0.00308642   7 t-inv F
 -0.333333  0.333333  0.000000    0.00308642   7 t-inv F
  0.000000 -0.333333  0.000000    0.00308642   7 t-inv F
 -0.000000  0.333333 -0.000000    0.00308642   7 t-inv F
 -0.388889 -0.000000 -0.000000    0.00308642   8 t-inv F
  0.388889 -0.388889 -0.000000    0.00308642   8 t-inv F
 -0.388889  0.388889  0.000000    0.00308642   8 t-inv F
  0.000000 -0.388889  0.000000    0.00308642   8 t-inv F
 -0.000000  0.388889 -0.000000    0.00308642   8 t-inv F
 -0.444444 -0.000000 -0.000000    0.00308642   9 t-inv F
  0.444444 -0.444444 -0.000000    0.00308642   9 t-inv F
 -0.444444  0.444444  0.000000    0.00308642   9 t-inv F
  0.000000 -0.444444  0.000000    0.00308642   9 t-inv F
 -0.000000  0.444444 -0.000000    0.00308642   9 t-inv F
  0.500000 -0.500000 -0.000000    0.00308642  10 t-inv F
  0.000000 -0.500000  0.000000    0.00308642  10 t-inv F
 -0.055556 -0.055556 -0.000000    0.00308642  11 t-inv F
  0.055556 -0.111111 -0.000000    0.00308642  11 t-inv F
 -0.055556  0.111111  0.000000    0.00308642  11 t-inv F
 -0.111111  0.055556  0.000000    0.00308642  11 t-inv F
  0.111111 -0.055556 -0.000000    0.00308642  11 t-inv F
 -0.111111 -0.055556 -0.000000    0.00308642  12 t-inv F
  0.111111 -0.166667 -0.000000    0.00308642  12 t-inv F
 -0.111111  0.166667  0.000000    0.00308642  12 t-inv F
 -0.166667  0.111111  0.000000    0.00308642  12 t-inv F
  0.166667 -0.111111 -0.000000    0.00308642  12 t-inv F
  0.055556 -0.166667  0.000000    0.00308642  12 t-inv F
 -0.055556  0.166667 -0.000000    0.00308642  12 t-inv F
 -0.166667  0.055556 -0.000000    0.00308642  12 t-inv F
  0.166667 -0.055556  0.000000    0.00308642  12 t-inv F
  0.055556  0.111111 -0.000000    0.00308642  12 t-inv F
 -0.055556 -0.111111  0.000000    0.00308642  12 t-inv F
 -0.166667 -0.055556 -0.000000    0.00308642  13 t-inv F
  0.166667 -0.222222 -0.000000    0.00308642  13 t-inv F
 -0.166667  0.222222  0.000000    0.00308642  13 t-inv F
 -0.222222  0.166667  0.000000    0.00308642  13 t-inv F
  0.222222 -0.166667 -0.000000    0.00308642  13 t-inv F
  0.055556 -0.222222  0.000000    0.00308642  13 t-inv F
 -0.055556  0.222222 -0.000000    0.00308642  13 t-inv F
 -0.222222  0.055556 -0.000000    0.00308642  13 t-inv F
  0.222222 -0.055556  0.000000    0.00308642  13 t-inv F
  0.055556  0.166667 -0.000000    0.00308642  13 t-inv F
 -0.055556 -0.166667  0.000000    0.00308642  13 t-inv F
 -0.222222 -0.055556 -0.000000    0.00308642  14 t-inv F
  0.222222 -0.277778 -0.000000    0.00308642  14 t-inv F
 -0.222222  0.277778  0.000000    0.00308642  14 t-inv F
 -0.277778  0.222222  0.000000    0.00308642  14 t-inv F
  0.277778 -0.222222 -0.000000    0.00308642  14 t-inv F
  0.055556 -0.277778  0.000000    0.00308642  14 t-inv F
 -0.055556  0.277778 -0.000000    0.00308642  14 t-inv F
 -0.277778  0.055556 -0.000000    0.00308642  14 t-inv F
  0.277778 -0.055556  0.000000    0.00308642  14 t-inv F
  0.055556  0.222222 -0.000000    0.00308642  14 t-inv F
 -0.055556 -0.222222  0.000000    0.00308642  14 t-inv F
 -0.277778 -0.055556 -0.000000    0.00308642  15 t-inv F
  0.277778 -0.333333 -0.000000    0.00308642  15 t-inv F
 -0.277778  0.333333  0.000000    0.00308642  15 t-inv F
 -0.333333  0.277778  0.000000    0.00308642  15 t-inv F
  0.333333 -0.277778 -0.000000    0.00308642  15 t-inv F
  0.055556 -0.333333  0.000000    0.00308642  15 t-inv F
 -0.055556  0.333333 -0.000000    0.00308642  15 t-inv F
 -0.333333  0.055556 -0.000000    0.00308642  15 t-inv F
  0.333333 -0.055556  0.000000    0.00308642  15 t-inv F
  0.055556  0.277778 -0.000000    0.00308642  15 t-inv F
 -0.055556 -0.277778  0.000000    0.00308642  15 t-inv F
 -0.333333 -0.055556 -0.000000    0.00308642  16 t-inv F
  0.333333 -0.388889 -0.000000    0.00308642  16 t-inv F
 -0.333333  0.388889  0.000000    0.00308642  16 t-inv F
 -0.388889  0.333333  0.000000    0.00308642  16 t-inv F
  0.388889 -0.333333 -0.000000    0.00308642  16 t-inv F
  0.055556 -0.388889  0.000000    0.00308642  16 t-inv F
 -0.055556  0.388889 -0.000000    0.00308642  16 t-inv F
 -0.388889  0.055556 -0.000000    0.00308642  16 t-inv F
  0.388889 -0.055556  0.000000    0.00308642  16 t-inv F
  0.055556  0.333333 -0.000000    0.00308642  16 t-inv F
 -0.055556 -0.333333  0.000000    0.00308642  16 t-inv F
 -0.388889 -0.055556 -0.000000    0.00308642  17 t-inv F
  0.388889 -0.444444 -0.000000    0.00308642  17 t-inv F
 -0.388889  0.444444  0.000000    0.00308642  17 t-inv F
 -0.444444  0.388889  0.000000    0.00308642  17 t-inv F
  0.444444 -0.388889 -0.000000    0.00308642  17 t-inv F
  0.055556 -0.444444  0.000000    0.00308642  17 t-inv F
 -0.055556  0.444444 -0.000000    0.00308642  17 t-inv F
 -0.444444  0.055556 -0.000000    0.00308642  17 t-inv F
  0.444444 -0.055556  0.000000    0.00308642  17 t-inv F
  0.055556  0.388889 -0.000000    0.00308642  17 t-inv F
 -0.055556 -0.388889  0.000000    0.00308642  17 t-inv F
 -0.444444 -0.055556 -0.000000    0.00308642  18 t-inv F
  0.444444 -0.500000 -0.000000    0.00308642  18 t-inv F
 -0.444444  0.500000  0.000000    0.00308642  18 t-inv F
 -0.500000  0.444444  0.000000    0.00308642  18 t-inv F
  0.500000 -0.444444 -0.000000    0.00308642  18 t-inv F
  0.055556 -0.500000  0.000000    0.00308642  18 t-inv F
 -0.055556  0.500000 -0.000000    0.00308642  18 t-inv F
 -0.500000  0.055556 -0.000000    0.00308642  18 t-inv F
  0.500000 -0.055556  0.000000    0.00308642  18 t-inv F
  0.055556  0.444444 -0.000000    0.00308642  18 t-inv F
 -0.055556 -0.444444  0.000000    0.00308642  18 t-inv F
 -0.111111 -0.111111 -0.000000    0.00308642  19 t-inv F
  0.111111 -0.222222 -0.000000    0.00308642  19 t-inv F
 -0.111111  0.222222  0.000000    0.00308642  19 t-inv F
 -0.222222  0.111111  0.000000    0.00308642  19 t-inv F
  0.222222 -0.111111 -0.000000    0.00308642  19 t-inv F
 -0.166667 -0.111111 -0.000000    0.00308642  20 t-inv F
  0.166667 -0.277778 -0.000000    0.00308642  20 t-inv F
 -0.166667  0.277778  0.000000    0.00308642  20 t-inv F
 -0.277778  0.166667  0.000000    0.00308642  20 t-inv F
  0.277778 -0.166667 -0.000000    0.00308642  20 t-inv F
  0.111111 -0.277778  0.000000    0.00308642  20 t-inv F
 -0.111111  0.277778 -0.000000    0.00308642  20 t-inv F
 -0.277778  0.111111 -0.000000    0.00308642  20 t-inv F
  0.277778 -0.111111  0.000000    0.00308642  20 t-inv F
  0.111111  0.166667 -0.000000    0.00308642  20 t-inv F
 -0.111111 -0.166667  0.000000    0.00308642  20 t-inv F
 -0.222222 -0.111111 -0.000000    0.00308642  21 t-inv F
  0.222222 -0.333333 -0.000000    0.00308642  21 t-inv F
 -0.222222  0.333333  0.000000    0.00308642  21 t-inv F
 -0.333333  0.222222  0.000000    0.00308642  21 t-inv F
  0.333333 -0.222222 -0.000000    0.00308642  21 t-inv F
  0.111111 -0.333333  0.000000    0.00308642  21 t-inv F
 -0.111111  0.333333 -0.000000    0.00308642  21 t-inv F
 -0.333333  0.111111 -0.000000    0.00308642  21 t-inv F
  0.333333 -0.111111  0.000000    0.00308642  21 t-inv F
  0.111111  0.222222 -0.000000    0.00308642  21 t-inv F
 -0.111111 -0.222222  0.000000    0.00308642  21 t-inv F
 -0.277778 -0.111111 -0.000000    0.00308642  22 t-inv F
  0.277778 -0.388889 -0.000000    0.00308642  22 t-inv F
 -0.277778  0.388889  0.000000    0.00308642  22 t-inv F
 -0.388889  0.277778  0.000000    0.00308642  22 t-inv F
  0.388889 -0.277778 -0.000000    0.00308642  22 t-inv F
  0.111111 -0.388889  0.000000    0.00308642  22 t-inv F
 -0.111111  0.388889 -0.000000    0.00308642  22 t-inv F
 -0.388889  0.111111 -0.000000    0.00308642  22 t-inv F
  0.388889 -0.111111  0.000000    0.00308642  22 t-inv F
  0.111111  0.277778 -0.000000    0.00308642  22 t-inv F
 -0.111111 -0.277778  0.000000    0.00308642  22 t-inv F
 -0.333333 -0.111111 -0.000000    0.00308642  23 t-inv F
  0.333333 -0.444444 -0.000000    0.00308642  23 t-inv F
 -0.333333  0.444444  0.000000    0.00308642  23 t-inv F
 -0.444444  0.333333  0.000000    0.00308642  23 t-inv F
  0.444444 -0.333333 -0.000000    0.00308642  23 t-inv F
  0.111111 -0.444444  0.000000    0.00308642  23 t-inv F
 -0.111111  0.444444 -0.000000    0.00308642  23 t-inv F
 -0.444444  0.111111 -0.000000    0.00308642  23 t-inv F
  0.444444 -0.111111  0.000000    0.00308642  23 t-inv F
  0.111111  0.333333 -0.000000    0.00308642  23 t-inv F
 -0.111111 -0.333333  0.000000    0.00308642  23 t-inv F
 -0.388889 -0.111111 -0.000000    0.00308642  24 t-inv F
  0.388889 -0.500000 -0.000000    0.00308642  24 t-inv F
 -0.388889  0.500000  0.000000    0.00308642  24 t-inv F
 -0.500000  0.388889  0.000000    0.00308642  24 t-inv F
  0.500000 -0.388889 -0.000000    0.00308642  24 t-inv F
  0.111111 -0.500000  0.000000    0.00308642  24 t-inv F
 -0.111111  0.500000 -0.000000    0.00308642  24 t-inv F
 -0.500000  0.111111 -0.000000    0.00308642  24 t-inv F
  0.500000 -0.111111  0.000000    0.00308642  24 t-inv F
  0.111111  0.388889 -0.000000    0.00308642  24 t-inv F
 -0.111111 -0.388889  0.000000    0.00308642  24 t-inv F
 -0.444444 -0.111111 -0.000000    0.00308642  25 t-inv F
  0.444444 -0.555556 -0.000000    0.00308642  25 t-inv F
 -0.444444  0.555556  0.000000    0.00308642  25 t-inv F
  0.111111 -0.555556  0.000000    0.00308642  25 t-inv F
 -0.111111  0.555556 -0.000000    0.00308642  25 t-inv F
 -0.166667 -0.166667 -0.000000    0.00308642  26 t-inv F
  0.166667 -0.333333 -0.000000    0.00308642  26 t-inv F
 -0.166667  0.333333  0.000000    0.00308642  26 t-inv F
 -0.333333  0.166667  0.000000    0.00308642  26 t-inv F
  0.333333 -0.166667 -0.000000    0.00308642  26 t-inv F
 -0.222222 -0.166667 -0.000000    0.00308642  27 t-inv F
  0.222222 -0.388889 -0.000000    0.00308642  27 t-inv F
 -0.222222  0.388889  0.000000    0.00308642  27 t-inv F
 -0.388889  0.222222  0.000000    0.00308642  27 t-inv F
  0.388889 -0.222222 -0.000000    0.00308642  27 t-inv F
  0.166667 -0.388889  0.000000    0.00308642  27 t-inv F
 -0.166667  0.388889 -0.000000    0.00308642  27 t-inv F
 -0.388889  0.166667 -0.000000    0.00308642  27 t-inv F
  0.388889 -0.166667  0.000000    0.00308642  27 t-inv F
  0.166667  0.222222 -0.000000    0.00308642  27 t-inv F
 -0.166667 -0.222222  0.000000    0.00308642  27 t-inv F
 -0.277778 -0.166667 -0.000000    0.00308642  28 t-inv F
  0.277778 -0.444444 -0.000000    0.00308642  28 t-inv F
 -0.277778  0.444444  0.000000    0.00308642  28 t-inv F
 -0.444444  0.277778  0.000000    0.00308642  28 t-inv F
  0.444444 -0.277778 -0.000000    0.00308642  28 t-inv F
  0.166667 -0.444444  0.000000    0.00308642  28 t-inv F
 -0.166667  0.444444 -0.000000    0.00308642  28 t-inv F
 -0.444444  0.166667 -0.000000    0.00308642  28 t-inv F
  0.444444 -0.166667  0.000000    0.00308642  28 t-inv F
  0.166667  0.277778 -0.000000    0.00308642  28 t-inv F
 -0.166667 -0.277778  0.000000    0.00308642  28 t-inv F
 -0.333333 -0.166667 -0.000000    0.00308642  29 t-inv F
  0.333333 -0.500000 -0.000000    0.00308642  29 t-inv F
 -0.333333  0.500000  0.000000    0.00308642  29 t-inv F
 -0.500000  0.333333  0.000000    0.00308642  29 t-inv F
  0.500000 -0.333333 -0.000000    0.00308642  29 t-inv F
  0.166667 -0.500000  0.000000    0.00308642  29 t-inv F
 -0.166667  0.500000 -0.000000    0.00308642  29 t-inv F
 -0.500000  0.166667 -0.000000    0.00308642  29 t-inv F
  0.500000 -0.166667  0.000000    0.00308642  29 t-inv F
  0.166667  0.333333 -0.000000    0.00308642  29 t-inv F
 -0.166667 -0.333333  0.000000    0.00308642  29 t-inv F
 -0.388889 -0.166667 -0.000000    0.00308642  30 t-inv F
  0.388889 -0.555556 -0.000000    0.00308642  30 t-inv F
 -0.388889  0.555556  0.000000    0.00308642  30 t-inv F
 -0.555556  0.388889  0.000000    0.00308642  30 t-inv F
  0.555556 -0.388889 -0.000000    0.00308642  30 t-inv F
  0.166667 -0.555556  0.000000    0.00308642  30 t-inv F
 -0.166667  0.555556 -0.000000    0.00308642  30 t-inv F
 -0.555556  0.166667 -0.000000    0.00308642  30 t-inv F
  0.555556 -0.166667  0.000000    0.00308642  30 t-inv F
  0.166667  0.388889 -0.000000    0.00308642  30 t-inv F
 -0.166667 -0.388889  0.000000    0.00308642  30 t-inv F
 -0.222222 -0.222222 -0.000000    0.00308642  31 t-inv F
  0.222222 -0.444444 -0.000000    0.00308642  31 t-inv F
 -0.222222  0.444444  0.000000    0.00308642  31 t-inv F
 -0.444444  0.222222  0.000000    0.00308642  31 t-inv F
  0.444444 -0.222222 -0.000000    0.00308642  31 t-inv F
 -0.277778 -0.222222 -0.000000    0.00308642  32 t-inv F
  0.277778 -0.500000 -0.000000    0.00308642  32 t-inv F
 -0.277778  0.500000  0.000000    0.00308642  32 t-inv F
 -0.500000  0.277778  0.000000    0.00308642  32 t-inv F
  0.500000 -0.277778 -0.000000    0.00308642  32 t-inv F
  0.222222 -0.500000  0.000000    0.00308642  32 t-inv F
 -0.222222  0.500000 -0.000000    0.00308642  32 t-inv F
 -0.500000  0.222222 -0.000000    0.00308642  32 t-inv F
  0.500000 -0.222222  0.000000    0.00308642  32 t-inv F
  0.222222  0.277778 -0.000000    0.00308642  32 t-inv F
 -0.222222 -0.277778  0.000000    0.00308642  32 t-inv F
 -0.333333 -0.222222 -0.000000    0.00308642  33 t-inv F
  0.333333 -0.555556 -0.000000    0.00308642  33 t-inv F
 -0.333333  0.555556  0.000000    0.00308642  33 t-inv F
 -0.555556  0.333333  0.000000    0.00308642  33 t-inv F
  0.555556 -0.333333 -0.000000    0.00308642  33 t-inv F
  0.222222 -0.555556  0.000000    0.00308642  33 t-inv F
 -0.222222  0.555556 -0.000000    0.00308642  33 t-inv F
 -0.555556  0.222222 -0.000000    0.00308642  33 t-inv F
  0.555556 -0.222222  0.000000    0.00308642  33 t-inv F
  0.222222  0.333333 -0.000000    0.00308642  33 t-inv F
 -0.222222 -0.333333  0.000000    0.00308642  33 t-inv F
 -0.388889 -0.222222 -0.000000    0.00308642  34 t-inv F
  0.388889 -0.611111 -0.000000    0.00308642  34 t-inv F
 -0.388889  0.611111  0.000000    0.00308642  34 t-inv F
  0.222222 -0.611111  0.000000    0.00308642  34 t-inv F
 -0.222222  0.611111 -0.000000    0.00308642  34 t-inv F
 -0.277778 -0.277778 -0.000000    0.00308642  35 t-inv F
  0.277778 -0.555556 -0.000000    0.00308642  35 t-inv F
 -0.277778  0.555556  0.000000    0.00308642  35 t-inv F
 -0.555556  0.277778  0.000000    0.00308642  35 t-inv F
  0.555556 -0.277778 -0.000000    0.00308642  35 t-inv F
 -0.333333 -0.277778 -0.000000    0.00308642  36 t-inv F
  0.333333 -0.611111 -0.000000    0.00308642  36 t-inv F
 -0.333333  0.611111  0.000000    0.00308642  36 t-inv F
 -0.611111  0.333333  0.000000    0.00308642  36 t-inv F
  0.611111 -0.333333 -0.000000    0.00308642  36 t-inv F
  0.277778 -0.611111  0.000000    0.00308642  36 t-inv F
 -0.277778  0.611111 -0.000000    0.00308642  36 t-inv F
 -0.611111  0.277778 -0.000000    0.00308642  36 t-inv F
  0.611111 -0.277778  0.000000    0.00308642  36 t-inv F
  0.277778  0.333333 -0.000000    0.00308642  36 t-inv F
 -0.277778 -0.333333  0.000000    0.00308642  36 t-inv F
 -0.333333 -0.333333 -0.000000    0.00308642  37 t-inv F


--------------------------------------------------------------------------------------------------------




 Dimension of arrays:
   k-points           NKPTS =     37   k-points in BZ     NKDIM =     37   number of bands    NBANDS=    112
   number of dos      NEDOS =    301   number of ions     NIONS =     18
   non local maximal  LDIM  =     11   non local SUM 2l+1 LMDIM =     41
   total plane-waves  NPLWV = 128000
   max r-space proj   IRMAX =      1   max aug-charges    IRDMAX=  11895
   dimension x,y,z NGX =    20 NGY =   20 NGZ =  320
   dimension x,y,z NGXF=    40 NGYF=   40 NGZF=  640
   support grid    NGXF=    40 NGYF=   40 NGZF=  640
   ions per type =               6  12
 NGX,Y,Z   is equivalent  to a cutoff of  10.02, 10.02, 10.64 a.u.
 NGXF,Y,Z  is equivalent  to a cutoff of  20.03, 20.03, 21.28 a.u.


 I would recommend the setting:
   dimension x,y,z NGX =    20 NGY =   20 NGZ =  303
 SYSTEM =  unknown system                          
 POSCAR =  Mo Se                                   

 Startparameter for this run:
   NWRITE =      2    write-flag & timer
   PREC   = accura    normal or accurate (medium, high low for compatibility)
   ISTART =      0    job   : 0-new  1-cont  2-samecut
   ICHARG =      2    charge: 1-file 2-atom 10-const
   ISPIN  =      1    spin polarized calculation?
   LNONCOLLINEAR =      F non collinear calculations
   LSORBIT =      F    spin-orbit coupling
   INIWAV =      1    electr: 0-lowe 1-rand  2-diag
   LASPH  =      F    aspherical Exc in radial PAW
   METAGGA=      F    non-selfconsistent MetaGGA calc.

 Electronic Relaxation 1
   ENCUT  =  344.9 eV  25.35 Ry    5.03 a.u.   5.03  5.03 75.72*2*pi/ulx,y,z
   ENINI  =  344.9     initial cutoff
   ENAUG  =  964.7 eV  augmentation charge cutoff
   NELM   =     60;   NELMIN=  5; NELMDL= -5     # of ELM steps 
   EDIFF  = 0.1E-07   stopping-criterion for ELM
   LREAL  =      F    real-space projection
   NLSPLINE    = F    spline interpolate recip. space projectors
   LCOMPAT=      F    compatible to vasp.4.4
   GGA_COMPAT  = T    GGA compatible to vasp.4.4-vasp.4.6
   LMAXPAW     = -100 max onsite density
   LMAXMIX     =    2 max onsite mixed and CHGCAR
   VOSKOWN=      0    Vosko Wilk Nusair interpolation
   ROPT   =    0.00000   0.00000
 Ionic relaxation
   EDIFFG = 0.1E-06   stopping-criterion for IOM
   NSW    =      0    number of steps for IOM
   NBLOCK =      1;   KBLOCK =      1    inner block; outer block 
   IBRION =     -1    ionic relax: 0-MD 1-quasi-New 2-CG
   NFREE  =      0    steps in history (QN), initial steepest desc. (CG)
   ISIF   =      2    stress and relaxation
   IWAVPR =     10    prediction:  0-non 1-charg 2-wave 3-comb
   ISYM   =      2    0-nonsym 1-usesym 2-fastsym
   LCORR  =      T    Harris-Foulkes like correction to forces

   POTIM  = 0.5000    time-step for ionic-motion
   TEIN   =    0.0    initial temperature
   TEBEG  =    0.0;   TEEND  =   0.0 temperature during run
   SMASS  =  -3.00    Nose mass-parameter (am)
   estimated Nose-frequenzy (Omega)   =  0.10E-29 period in steps =****** mass=  -0.252E-27a.u.
   SCALEE = 1.0000    scale energy and forces
   NPACO  =    256;   APACO  = 16.0  distance and # of slots for P.C.
   PSTRESS=    0.0 pullay stress

  Mass of Ions in am
   POMASS =  95.94 78.96
  Ionic Valenz
   ZVAL   =  14.00  6.00
  Atomic Wigner-Seitz radii
   RWIGS  =  -1.00 -1.00
  virtual crystal weights 
   VCA    =   1.00  1.00
   NELECT =     156.0000    total number of electrons
   NUPDOWN=      -1.0000    fix difference up-down

 DOS related values:
   EMIN   =  10.00;   EMAX   =-10.00  energy-range for DOS
   EFERMI =   0.00
   ISMEAR =    -5;   SIGMA  =   0.01  broadening in eV -4-tet -1-fermi 0-gaus

 Electronic relaxation 2 (details)
   IALGO  =     38    algorithm
   LDIAG  =      T    sub-space diagonalisation (order eigenvalues)
   LSUBROT=      F    optimize rotation matrix (better conditioning)
   TURBO    =      0    0=normal 1=particle mesh
   IRESTART =      0    0=no restart 2=restart with 2 vectors
   NREBOOT  =      0    no. of reboots
   NMIN     =      0    reboot dimension
   EREF     =   0.00    reference energy to select bands
   IMIX   =      4    mixing-type and parameters
     AMIX     =   0.40;   BMIX     =  1.00
     AMIX_MAG =   1.60;   BMIX_MAG =  1.00
     AMIN     =   0.10
     WC   =   100.;   INIMIX=   1;  MIXPRE=   1;  MAXMIX= -45

 Intra band minimization:
   WEIMIN = 0.0000     energy-eigenvalue tresh-hold
   EBREAK =  0.22E-10  absolut break condition
   DEPER  =   0.30     relativ break condition  

   TIME   =   0.40     timestep for ELM

  volume/ion in A,a.u.               =      26.51       178.91
  Fermi-wavevector in a.u.,A,eV,Ry     =   1.127750  2.131138 17.304149  1.271819
  Thomas-Fermi vector in A             =   2.264437
 
 Write flags
   LWAVE  =      T    write WAVECAR
   LCHARG =      T    write CHGCAR
   LVTOT  =      F    write LOCPOT, total local potential
   LVHAR  =      F    write LOCPOT, Hartree potential only
   LELF   =      F    write electronic localiz. function (ELF)
   LORBIT =      0    0 simple, 1 ext, 2 COOP (PROOUT)


 Dipole corrections
   LMONO  =      F    monopole corrections only (constant potential shift)
   LDIPOL =      F    correct potential (dipole corrections)
   IDIPOL =      0    1-x, 2-y, 3-z, 4-all directions 
   EPSILON=  1.0000000 bulk dielectric constant

 Exchange correlation treatment:
   GGA     =    PE    GGA type
   LEXCH   =     8    internal setting for exchange type
   VOSKOWN=      0    Vosko Wilk Nusair interpolation
   LHFCALC =     F    Hartree Fock is set to
   LHFONE  =     F    Hartree Fock one center treatment
   AEXX    =    0.0000 exact exchange contribution

 Linear response parameters
   LEPSILON=     T    determine dielectric tensor
   LRPA    =     F    only Hartree local field effects (RPA)
   LNABLA  =     F    use nabla operator in PAW spheres
   LVEL    =     F    velocity operator in full k-point grid
   LINTERFAST=   F  fast interpolation
   KINTER  =     0    interpolate to denser k-point grid
   CSHIFT  =0.1000    complex shift for real part using Kramers Kronig
   OMEGAMAX=  -1.0    maximum frequency
   DEG_THRESHOLD= 0.2000000E-02 threshold for treating states as degnerate
   RTIME   =    0.100 relaxation time in fs

 Orbital magnetization related:
   ORBITALMAG=     F  switch on orbital magnetization
   LCHIMAG   =     F  perturbation theory with respect to B field
   DQ        =  0.001000  dq finite difference perturbation B field



--------------------------------------------------------------------------------------------------------


 Static calculation
 charge density and potential will be updated during run
 non-spin polarized calculation
 Variant of blocked Davidson
 Davidson routine will perform the subspace rotation
 perform sub-space diagonalisation
    after iterative eigenvector-optimisation
 modified Broyden-mixing scheme, WC =      100.0
 initial mixing is a Kerker type mixing with AMIX =  0.4000 and BMIX =      1.0000
 Hartree-type preconditioning will be used
 using additional bands           34
 reciprocal scheme for non local part
 use partial core corrections
 calculate Harris-corrections to forces 
   (improved forces if not selfconsistent)
 use gradient corrections 
 use of overlap-Matrix (Vanderbilt PP)
 Fermi weights with tetrahedron method with Bloechl corrections


--------------------------------------------------------------------------------------------------------


  energy-cutoff  :      344.91
  volume of cell :      477.21
      direct lattice vectors                 reciprocal lattice vectors
     3.319748788  0.000000000  0.000000000     0.301227612  0.173913843  0.000000000
    -1.659874394  2.874986784  0.000000000     0.000000000  0.347827686  0.000000000
     0.000000000  0.000000000 50.000000000     0.000000000  0.000000000  0.020000000

  length of vectors
     3.319748788  3.319748788 50.000000000     0.347827686  0.347827686  0.020000000


 
 k-points in units of 2pi/SCALE and weight: KPOINTS created by Atomic Simulation Env
   0.00000000  0.00000000  0.00000000       0.003
   0.01673487  0.00966188  0.00000000       0.019
   0.03346973  0.01932376  0.00000000       0.019
   0.05020460  0.02898564  0.00000000       0.019
   0.06693947  0.03864752  0.00000000       0.019
   0.08367434  0.04830940  0.00000000       0.019
   0.10040920  0.05797128  0.00000000       0.019
   0.11714407  0.06763316  0.00000000       0.019
   0.13387894  0.07729504  0.00000000       0.019
   0.15061381  0.08695692  0.00000000       0.009
   0.01673487  0.02898564  0.00000000       0.019
   0.03346973  0.03864752  0.00000000       0.037
   0.05020460  0.04830940  0.00000000       0.037
   0.06693947  0.05797128  0.00000000       0.037
   0.08367434  0.06763316  0.00000000       0.037
   0.10040920  0.07729504  0.00000000       0.037
   0.11714407  0.08695692  0.00000000       0.037
   0.13387894  0.09661880  0.00000000       0.037
   0.03346973  0.05797128  0.00000000       0.019
   0.05020460  0.06763316  0.00000000       0.037
   0.06693947  0.07729504  0.00000000       0.037
   0.08367434  0.08695692  0.00000000       0.037
   0.10040920  0.09661880  0.00000000       0.037
   0.11714407  0.10628068  0.00000000       0.037
   0.13387894  0.11594256  0.00000000       0.019
   0.05020460  0.08695692  0.00000000       0.019
   0.06693947  0.09661880  0.00000000       0.037
   0.08367434  0.10628068  0.00000000       0.037
   0.10040920  0.11594256  0.00000000       0.037
   0.11714407  0.12560444  0.00000000       0.037
   0.06693947  0.11594256  0.00000000       0.019
   0.08367434  0.12560444  0.00000000       0.037
   0.10040920  0.13526632  0.00000000       0.037
   0.11714407  0.14492820  0.00000000       0.019
   0.08367434  0.14492820  0.00000000       0.019
   0.10040920  0.15459008  0.00000000       0.037
   0.10040920  0.17391384  0.00000000       0.006
 
 k-points in reciprocal lattice and weights: KPOINTS created by Atomic Simulation Env
   0.00000000  0.00000000  0.00000000       0.003
   0.05555556  0.00000000  0.00000000       0.019
   0.11111111  0.00000000  0.00000000       0.019
   0.16666667  0.00000000  0.00000000       0.019
   0.22222222  0.00000000  0.00000000       0.019
   0.27777778  0.00000000  0.00000000       0.019
   0.33333333  0.00000000  0.00000000       0.019
   0.38888889  0.00000000  0.00000000       0.019
   0.44444444  0.00000000  0.00000000       0.019
   0.50000000  0.00000000  0.00000000       0.009
   0.05555556  0.05555556  0.00000000       0.019
   0.11111111  0.05555556  0.00000000       0.037
   0.16666667  0.05555556  0.00000000       0.037
   0.22222222  0.05555556  0.00000000       0.037
   0.27777778  0.05555556  0.00000000       0.037
   0.33333333  0.05555556  0.00000000       0.037
   0.38888889  0.05555556  0.00000000       0.037
   0.44444444  0.05555556  0.00000000       0.037
   0.11111111  0.11111111  0.00000000       0.019
   0.16666667  0.11111111  0.00000000       0.037
   0.22222222  0.11111111  0.00000000       0.037
   0.27777778  0.11111111  0.00000000       0.037
   0.33333333  0.11111111  0.00000000       0.037
   0.38888889  0.11111111  0.00000000       0.037
   0.44444444  0.11111111  0.00000000       0.019
   0.16666667  0.16666667  0.00000000       0.019
   0.22222222  0.16666667  0.00000000       0.037
   0.27777778  0.16666667  0.00000000       0.037
   0.33333333  0.16666667  0.00000000       0.037
   0.38888889  0.16666667  0.00000000       0.037
   0.22222222  0.22222222  0.00000000       0.019
   0.27777778  0.22222222  0.00000000       0.037
   0.33333333  0.22222222  0.00000000       0.037
   0.38888889  0.22222222  0.00000000       0.019
   0.27777778  0.27777778  0.00000000       0.019
   0.33333333  0.27777778  0.00000000       0.037
   0.33333333  0.33333333  0.00000000       0.006
 
 position of ions in fractional coordinates (direct lattice) 
   0.16666667  0.33333333  0.17700000
   0.83333333  0.66666667  0.30620000
   0.16666667  0.33333333  0.43540000
   0.83333333  0.66666667  0.56460000
   0.16666667  0.33333333  0.69380000
   0.83333333  0.66666667  0.82300000
   0.83333333  0.66666667  0.21038059
   0.83333333  0.66666667  0.14361941
   0.16666667  0.33333333  0.33958059
   0.16666667  0.33333333  0.27281941
   0.83333333  0.66666667  0.46878059
   0.83333333  0.66666667  0.40201941
   0.16666667  0.33333333  0.59798059
   0.16666667  0.33333333  0.53121941
   0.83333333  0.66666667  0.72718059
   0.83333333  0.66666667  0.66041941
   0.16666667  0.33333333  0.85638059
   0.16666667  0.33333333  0.78961941
 
 position of ions in cartesian coordinates  (Angst):
  -0.00000000  0.95832893  8.85000000
   1.65987439  1.91665786 15.31000000
  -0.00000000  0.95832893 21.77000000
   1.65987439  1.91665786 28.23000000
  -0.00000000  0.95832893 34.69000000
   1.65987439  1.91665786 41.15000000
   1.65987439  1.91665786 10.51902948
   1.65987439  1.91665786  7.18097052
  -0.00000000  0.95832893 16.97902948
  -0.00000000  0.95832893 13.64097052
   1.65987439  1.91665786 23.43902948
   1.65987439  1.91665786 20.10097052
  -0.00000000  0.95832893 29.89902948
  -0.00000000  0.95832893 26.56097052
   1.65987439  1.91665786 36.35902948
   1.65987439  1.91665786 33.02097052
  -0.00000000  0.95832893 42.81902948
  -0.00000000  0.95832893 39.48097052
 


--------------------------------------------------------------------------------------------------------


 k-point  1 :   0.0000 0.0000 0.0000  plane waves:    6703
 k-point  2 :   0.0556 0.0000 0.0000  plane waves:    6781
 k-point  3 :   0.1111 0.0000 0.0000  plane waves:    6827
 k-point  4 :   0.1667 0.0000 0.0000  plane waves:    6855
 k-point  5 :   0.2222 0.0000 0.0000  plane waves:    6875
 k-point  6 :   0.2778 0.0000 0.0000  plane waves:    6915
 k-point  7 :   0.3333 0.0000 0.0000  plane waves:    6923
 k-point  8 :   0.3889 0.0000 0.0000  plane waves:    6942
 k-point  9 :   0.4444 0.0000 0.0000  plane waves:    6972
 k-point 10 :   0.5000 0.0000 0.0000  plane waves:    6978
 k-point 11 :   0.0556 0.0556 0.0000  plane waves:    6837
 k-point 12 :   0.1111 0.0556 0.0000  plane waves:    6869
 k-point 13 :   0.1667 0.0556 0.0000  plane waves:    6871
 k-point 14 :   0.2222 0.0556 0.0000  plane waves:    6889
 k-point 15 :   0.2778 0.0556 0.0000  plane waves:    6931
 k-point 16 :   0.3333 0.0556 0.0000  plane waves:    6924
 k-point 17 :   0.3889 0.0556 0.0000  plane waves:    6942
 k-point 18 :   0.4444 0.0556 0.0000  plane waves:    6965
 k-point 19 :   0.1111 0.1111 0.0000  plane waves:    6875
 k-point 20 :   0.1667 0.1111 0.0000  plane waves:    6900
 k-point 21 :   0.2222 0.1111 0.0000  plane waves:    6946
 k-point 22 :   0.2778 0.1111 0.0000  plane waves:    6966
 k-point 23 :   0.3333 0.1111 0.0000  plane waves:    6965
 k-point 24 :   0.3889 0.1111 0.0000  plane waves:    6961
 k-point 25 :   0.4444 0.1111 0.0000  plane waves:    6955
 k-point 26 :   0.1667 0.1667 0.0000  plane waves:    6949
 k-point 27 :   0.2222 0.1667 0.0000  plane waves:    6973
 k-point 28 :   0.2778 0.1667 0.0000  plane waves:    6980
 k-point 29 :   0.3333 0.1667 0.0000  plane waves:    6980
 k-point 30 :   0.3889 0.1667 0.0000  plane waves:    6987
 k-point 31 :   0.2222 0.2222 0.0000  plane waves:    6983
 k-point 32 :   0.2778 0.2222 0.0000  plane waves:    6993
 k-point 33 :   0.3333 0.2222 0.0000  plane waves:    7009
 k-point 34 :   0.3889 0.2222 0.0000  plane waves:    7007
 k-point 35 :   0.2778 0.2778 0.0000  plane waves:    7003
 k-point 36 :   0.3333 0.2778 0.0000  plane waves:    7017
 k-point 37 :   0.3333 0.3333 0.0000  plane waves:    7029

 maximum and minimum number of plane-waves per node :      7029     6703

 maximum number of plane-waves:      7029
 maximum index in each direction: 
   IXMAX=    4   IYMAX=    5   IZMAX=   75
   IXMIN=   -5   IYMIN=   -5   IZMIN=  -75

 NGX is ok and might be reduce to  20
 WARNING: aliasing errors must be expected set NGY to  22 to avoid them
 NGZ is ok and might be reduce to 302
 aliasing errors are usually negligible using standard VASP settings
 and one can safely disregard these warnings

 serial   3D FFT for wavefunctions
 parallel 3D FFT for charge:
    minimum data exchange during FFTs selected (reduces bandwidth)


 total amount of memory used by VASP on root node   232566. kBytes
========================================================================

   base      :      30000. kBytes
   nonl-proj :     173295. kBytes
   fftplans  :       2116. kBytes
   grid      :       8000. kBytes
   one-center:       1452. kBytes
   wavefun   :      17703. kBytes
 
     INWAV:  cpu time    0.0000: real time    0.0000
 Broyden mixing: mesh for mixing (old mesh)
   NGX =  9   NGY =  9   NGZ =151
  (NGX  = 40   NGY  = 40   NGZ  =640)
  gives a total of  12231 points

 initial charge density was supplied:
 charge density of overlapping atoms calculated
 number of electron     156.0000000 magnetization 
 keeping initial charge density in first step


--------------------------------------------------------------------------------------------------------


 Maximum index for augmentation-charges          951 (set IRDMAX)


--------------------------------------------------------------------------------------------------------


 First call to EWALD:  gamma=   0.227
 Maximum number of real-space cells 7x 7x 1
 Maximum number of reciprocal cells 1x 1x15

 FEWALD executed in parallel
    FEWALD:  cpu time    0.0020: real time    0.0014


----------------------------------------- Iteration    1(   1)  ---------------------------------------


    POTLOK:  cpu time    0.0340: real time    0.0340
    SETDIJ:  cpu time    0.0090: real time    0.0086
     EDDAV:  cpu time   10.0825: real time   10.0935
 BZINTS: Fermi energy: 14.870553;156.000000 electrons
         Band energy:-681.027965;  BLOECHL correction: -0.118074
       DOS:  cpu time    0.0340: real time    0.0336
    --------------------------------------------
      LOOP:  cpu time   10.1605: real time   10.1719

 eigenvalue-minimisations  :  9464
 total energy-change (2. order) : 0.1038445E+04  (-0.6678955E+04)
 number of electron     156.0000000 magnetization 
 augmentation part      156.0000000 magnetization 

 Free energy of the ion-electron system (eV)
  ---------------------------------------------------
  alpha Z        PSCENC =       494.70066135
  Ewald energy   TEWEN  =     42065.30457601
  -Hartree energ DENC   =    -55680.04721695
  -exchange      EXHF   =         0.00000000
  -V(xc)+E(xc)   XCENC  =       393.15198685
  PAW double counting   =     11576.11128577   -11383.69931802
  entropy T*S    EENTRO =         0.00000000
  eigenvalues    EBANDS =      -681.02796535
  atomic energy  EATOM  =     14253.95082529
  Solvation  Ediel_sol  =         0.00000000
  ---------------------------------------------------
  free energy    TOTEN  =      1038.44483496 eV

  energy without entropy =     1038.44483496  energy(sigma->0) =     1038.44483496


--------------------------------------------------------------------------------------------------------




----------------------------------------- Iteration    1(   2)  ---------------------------------------


     EDDAV:  cpu time   12.5341: real time   12.5535
 BZINTS: Fermi energy:  6.104722;156.000000 electrons
         Band energy:***********;  BLOECHL correction:  0.000000
       DOS:  cpu time    0.0080: real time    0.0073
    --------------------------------------------
      LOOP:  cpu time   12.5431: real time   12.5641

 eigenvalue-minimisations  : 12012
 total energy-change (2. order) :-0.1084522E+04  (-0.1049980E+04)
 number of electron     156.0000000 magnetization 
 augmentation part      156.0000000 magnetization 

 Free energy of the ion-electron system (eV)
  ---------------------------------------------------
  alpha Z        PSCENC =       494.70066135
  Ewald energy   TEWEN  =     42065.30457601
  -Hartree energ DENC   =    -55680.04721695
  -exchange      EXHF   =         0.00000000
  -V(xc)+E(xc)   XCENC  =       393.15198685
  PAW double counting   =     11576.11128577   -11383.69931802
  entropy T*S    EENTRO =         0.00000000
  eigenvalues    EBANDS =     -1765.55023558
  atomic energy  EATOM  =     14253.95082529
  Solvation  Ediel_sol  =         0.00000000
  ---------------------------------------------------
  free energy    TOTEN  =       -46.07743527 eV

  energy without entropy =      -46.07743527  energy(sigma->0) =      -46.07743527


--------------------------------------------------------------------------------------------------------




----------------------------------------- Iteration    1(   3)  ---------------------------------------


     EDDAV:  cpu time   11.9652: real time   11.9780
 BZINTS: Fermi energy:  4.894803;156.000000 electrons
         Band energy:***********;  BLOECHL correction:  0.000000
       DOS:  cpu time    0.0070: real time    0.0069
    --------------------------------------------
      LOOP:  cpu time   11.9732: real time   11.9912

 eigenvalue-minimisations  : 11424
 total energy-change (2. order) :-0.9225278E+02  (-0.9095061E+02)
 number of electron     156.0000000 magnetization 
 augmentation part      156.0000000 magnetization 

 Free energy of the ion-electron system (eV)
  ---------------------------------------------------
  alpha Z        PSCENC =       494.70066135
  Ewald energy   TEWEN  =     42065.30457601
  -Hartree energ DENC   =    -55680.04721695
  -exchange      EXHF   =         0.00000000
  -V(xc)+E(xc)   XCENC  =       393.15198685
  PAW double counting   =     11576.11128577   -11383.69931802
  entropy T*S    EENTRO =         0.00000000
  eigenvalues    EBANDS =     -1857.80301175
  atomic energy  EATOM  =     14253.95082529
  Solvation  Ediel_sol  =         0.00000000
  ---------------------------------------------------
  free energy    TOTEN  =      -138.33021144 eV

  energy without entropy =     -138.33021144  energy(sigma->0) =     -138.33021144


--------------------------------------------------------------------------------------------------------




----------------------------------------- Iteration    1(   4)  ---------------------------------------


     EDDAV:  cpu time   15.3827: real time   15.4026
 BZINTS: Fermi energy:  4.978936;156.000000 electrons
         Band energy:***********;  BLOECHL correction:  0.000000
       DOS:  cpu time    0.0060: real time    0.0070
    --------------------------------------------
      LOOP:  cpu time   15.3907: real time   15.4135

 eigenvalue-minimisations  : 13972
 total energy-change (2. order) :-0.3975427E+01  (-0.3956740E+01)
 number of electron     156.0000000 magnetization 
 augmentation part      156.0000000 magnetization 

 Free energy of the ion-electron system (eV)
  ---------------------------------------------------
  alpha Z        PSCENC =       494.70066135
  Ewald energy   TEWEN  =     42065.30457601
  -Hartree energ DENC   =    -55680.04721695
  -exchange      EXHF   =         0.00000000
  -V(xc)+E(xc)   XCENC  =       393.15198685
  PAW double counting   =     11576.11128577   -11383.69931802
  entropy T*S    EENTRO =         0.00000000
  eigenvalues    EBANDS =     -1861.77843864
  atomic energy  EATOM  =     14253.95082529
  Solvation  Ediel_sol  =         0.00000000
  ---------------------------------------------------
  free energy    TOTEN  =      -142.30563833 eV

  energy without entropy =     -142.30563833  energy(sigma->0) =     -142.30563833


--------------------------------------------------------------------------------------------------------




----------------------------------------- Iteration    1(   5)  ---------------------------------------


     EDDAV:  cpu time   12.0332: real time   12.3309
 BZINTS: Fermi energy:  4.902415;156.000000 electrons
         Band energy:***********;  BLOECHL correction:  0.000000
       DOS:  cpu time    0.0070: real time    0.0069
    CHARGE:  cpu time    0.2620: real time    0.2858
    MIXING:  cpu time    0.0010: real time    0.0014
    --------------------------------------------
      LOOP:  cpu time   12.3041: real time   12.6295

 eigenvalue-minimisations  : 11284
 total energy-change (2. order) :-0.3162416E-01  (-0.3158616E-01)
 number of electron     156.0000004 magnetization 
 augmentation part      -16.7318654 magnetization 

 Broyden mixing:
  rms(total) = 0.23764E+01    rms(broyden)= 0.23747E+01
  rms(prec ) = 0.24401E+01
  weight for this iteration     100.00

 Free energy of the ion-electron system (eV)
  ---------------------------------------------------
  alpha Z        PSCENC =       494.70066135
  Ewald energy   TEWEN  =     42065.30457601
  -Hartree energ DENC   =    -55680.04721695
  -exchange      EXHF   =         0.00000000
  -V(xc)+E(xc)   XCENC  =       393.15198685
  PAW double counting   =     11576.11128577   -11383.69931802
  entropy T*S    EENTRO =         0.00000000
  eigenvalues    EBANDS =     -1861.81006279
  atomic energy  EATOM  =     14253.95082529
  Solvation  Ediel_sol  =         0.00000000
  ---------------------------------------------------
  free energy    TOTEN  =      -142.33726248 eV

  energy without entropy =     -142.33726248  energy(sigma->0) =     -142.33726248


--------------------------------------------------------------------------------------------------------




----------------------------------------- Iteration    1(   6)  ---------------------------------------


    POTLOK:  cpu time    0.0320: real time    0.0335
    SETDIJ:  cpu time    0.0090: real time    0.0090
     EDDAV:  cpu time   14.4068: real time   14.7445
 BZINTS: Fermi energy:  3.063589;156.000000 electrons
         Band energy:***********;  BLOECHL correction:  0.000000
       DOS:  cpu time    0.0060: real time    0.0062
    CHARGE:  cpu time    0.2890: real time    0.2894
    MIXING:  cpu time    0.0020: real time    0.0014
    --------------------------------------------
      LOOP:  cpu time   14.7458: real time   15.0868

 eigenvalue-minimisations  : 13692
 total energy-change (2. order) : 0.1164601E+02  (-0.8274301E+01)
 number of electron     155.9999997 magnetization 
 augmentation part      -13.0858947 magnetization 

 Broyden mixing:
  rms(total) = 0.14036E+01    rms(broyden)= 0.14028E+01
  rms(prec ) = 0.14705E+01
  weight for this iteration     100.00

 eigenvalues of (default mixing * dielectric matrix)
  average eigenvalue GAMMA=   0.6751
  0.6751

 Free energy of the ion-electron system (eV)
  ---------------------------------------------------
  alpha Z        PSCENC =       494.70066135
  Ewald energy   TEWEN  =     42065.30457601
  -Hartree energ DENC   =    -55366.64534454
  -exchange      EXHF   =         0.00000000
  -V(xc)+E(xc)   XCENC  =       384.61174565
  PAW double counting   =     10978.17630994   -10793.21609442
  entropy T*S    EENTRO =         0.00000000
  eigenvalues    EBANDS =     -2147.57392816
  atomic energy  EATOM  =     14253.95082529
  Solvation  Ediel_sol  =         0.00000000
  ---------------------------------------------------
  free energy    TOTEN  =      -130.69124887 eV

  energy without entropy =     -130.69124887  energy(sigma->0) =     -130.69124887


--------------------------------------------------------------------------------------------------------




----------------------------------------- Iteration    1(   7)  ---------------------------------------


    POTLOK:  cpu time    0.0340: real time    0.0344
    SETDIJ:  cpu time    0.0090: real time    0.0087
     EDDAV:  cpu time   14.6828: real time   14.8509
 BZINTS: Fermi energy:  3.822106;156.000000 electrons
         Band energy:***********;  BLOECHL correction:  0.000000
       DOS:  cpu time    0.0060: real time    0.0062
    CHARGE:  cpu time    0.2650: real time    0.2649
    MIXING:  cpu time    0.0010: real time    0.0014
    --------------------------------------------
      LOOP:  cpu time   14.9977: real time   15.1694

 eigenvalue-minimisations  : 13468
 total energy-change (2. order) : 0.5866103E+01  (-0.2962807E+01)
 number of electron     156.0000000 magnetization 
 augmentation part      -14.7044297 magnetization 

 Broyden mixing:
  rms(total) = 0.68733E+00    rms(broyden)= 0.68694E+00
  rms(prec ) = 0.69403E+00
  weight for this iteration     100.00

 eigenvalues of (default mixing * dielectric matrix)
  average eigenvalue GAMMA=   1.4950
  2.4285  0.5615

 Free energy of the ion-electron system (eV)
  ---------------------------------------------------
  alpha Z        PSCENC =       494.70066135
  Ewald energy   TEWEN  =     42065.30457601
  -Hartree energ DENC   =    -55521.37850281
  -exchange      EXHF   =         0.00000000
  -V(xc)+E(xc)   XCENC  =       387.57382239
  PAW double counting   =     11326.73443080   -11137.90575768
  entropy T*S    EENTRO =         0.00000000
  eigenvalues    EBANDS =     -1993.80520140
  atomic energy  EATOM  =     14253.95082529
  Solvation  Ediel_sol  =         0.00000000
  ---------------------------------------------------
  free energy    TOTEN  =      -124.82514604 eV

  energy without entropy =     -124.82514604  energy(sigma->0) =     -124.82514604


--------------------------------------------------------------------------------------------------------




----------------------------------------- Iteration    1(   8)  ---------------------------------------


    POTLOK:  cpu time    0.0340: real time    0.0339
    SETDIJ:  cpu time    0.0080: real time    0.0084
     EDDAV:  cpu time   13.8299: real time   13.8417
 BZINTS: Fermi energy:  3.581293;156.000000 electrons
         Band energy:***********;  BLOECHL correction:  0.000000
       DOS:  cpu time    0.0070: real time    0.0070
    CHARGE:  cpu time    0.2810: real time    0.2804
    MIXING:  cpu time    0.0010: real time    0.0014
    --------------------------------------------
      LOOP:  cpu time   14.1618: real time   14.1777

 eigenvalue-minimisations  : 12740
 total energy-change (2. order) : 0.3795969E+00  (-0.2926298E+00)
 number of electron     156.0000000 magnetization 
 augmentation part      -14.3859076 magnetization 

 Broyden mixing:
  rms(total) = 0.12540E+00    rms(broyden)= 0.12529E+00
  rms(prec ) = 0.12909E+00
  weight for this iteration     100.00

 eigenvalues of (default mixing * dielectric matrix)
  average eigenvalue GAMMA=   1.3507
  0.5461  1.0421  2.4638

 Free energy of the ion-electron system (eV)
  ---------------------------------------------------
  alpha Z        PSCENC =       494.70066135
  Ewald energy   TEWEN  =     42065.30457601
  -Hartree energ DENC   =    -55481.34166705
  -exchange      EXHF   =         0.00000000
  -V(xc)+E(xc)   XCENC  =       386.22603412
  PAW double counting   =     11281.00310051   -11092.03817234
  entropy T*S    EENTRO =         0.00000000
  eigenvalues    EBANDS =     -2032.25090704
  atomic energy  EATOM  =     14253.95082529
  Solvation  Ediel_sol  =         0.00000000
  ---------------------------------------------------
  free energy    TOTEN  =      -124.44554914 eV

  energy without entropy =     -124.44554914  energy(sigma->0) =     -124.44554914


--------------------------------------------------------------------------------------------------------




----------------------------------------- Iteration    1(   9)  ---------------------------------------


    POTLOK:  cpu time    0.0340: real time    0.0345
    SETDIJ:  cpu time    0.0090: real time    0.0090
     EDDAV:  cpu time   12.2621: real time   12.2721
 BZINTS: Fermi energy:  3.648036;156.000000 electrons
         Band energy:***********;  BLOECHL correction:  0.000000
       DOS:  cpu time    0.0070: real time    0.0063
    CHARGE:  cpu time    0.2770: real time    0.2774
    MIXING:  cpu time    0.0010: real time    0.0014
    --------------------------------------------
      LOOP:  cpu time   12.5921: real time   12.6046

 eigenvalue-minimisations  : 11200
 total energy-change (2. order) : 0.2493641E-01  (-0.2157357E-01)
 number of electron     156.0000000 magnetization 
 augmentation part      -14.4725541 magnetization 

 Broyden mixing:
  rms(total) = 0.61625E-01    rms(broyden)= 0.61613E-01
  rms(prec ) = 0.62502E-01
  weight for this iteration     100.00

 eigenvalues of (default mixing * dielectric matrix)
  average eigenvalue GAMMA=   1.3014
  2.5205  1.3390  0.5491  0.7971

 Free energy of the ion-electron system (eV)
  ---------------------------------------------------
  alpha Z        PSCENC =       494.70066135
  Ewald energy   TEWEN  =     42065.30457601
  -Hartree energ DENC   =    -55496.33810401
  -exchange      EXHF   =         0.00000000
  -V(xc)+E(xc)   XCENC  =       386.57878687
  PAW double counting   =     11317.95168298   -11128.55586592
  entropy T*S    EENTRO =         0.00000000
  eigenvalues    EBANDS =     -2018.01317530
  atomic energy  EATOM  =     14253.95082529
  Solvation  Ediel_sol  =         0.00000000
  ---------------------------------------------------
  free energy    TOTEN  =      -124.42061273 eV

  energy without entropy =     -124.42061273  energy(sigma->0) =     -124.42061273


--------------------------------------------------------------------------------------------------------




----------------------------------------- Iteration    1(  10)  ---------------------------------------


    POTLOK:  cpu time    0.0350: real time    0.0358
    SETDIJ:  cpu time    0.0080: real time    0.0085
     EDDAV:  cpu time   14.3178: real time   14.3312
 BZINTS: Fermi energy:  3.816225;156.000000 electrons
         Band energy:***********;  BLOECHL correction:  0.000000
       DOS:  cpu time    0.0060: real time    0.0069
    CHARGE:  cpu time    0.2730: real time    0.2728
    MIXING:  cpu time    0.0020: real time    0.0014
    --------------------------------------------
      LOOP:  cpu time   14.6418: real time   14.6592

 eigenvalue-minimisations  : 12964
 total energy-change (2. order) : 0.5102320E-02  (-0.3198223E-02)
 number of electron     156.0000000 magnetization 
 augmentation part      -14.5126007 magnetization 

 Broyden mixing:
  rms(total) = 0.27886E-01    rms(broyden)= 0.27877E-01
  rms(prec ) = 0.28279E-01
  weight for this iteration     100.00

 eigenvalues of (default mixing * dielectric matrix)
  average eigenvalue GAMMA=   1.3418
  2.6080  1.7589  0.5503  0.9228  0.8688

 Free energy of the ion-electron system (eV)
  ---------------------------------------------------
  alpha Z        PSCENC =       494.70066135
  Ewald energy   TEWEN  =     42065.30457601
  -Hartree energ DENC   =    -55500.99596032
  -exchange      EXHF   =         0.00000000
  -V(xc)+E(xc)   XCENC  =       386.77602559
  PAW double counting   =     11338.80969254   -11149.26071257
  entropy T*S    EENTRO =         0.00000000
  eigenvalues    EBANDS =     -2013.70061831
  atomic energy  EATOM  =     14253.95082529
  Solvation  Ediel_sol  =         0.00000000
  ---------------------------------------------------
  free energy    TOTEN  =      -124.41551041 eV

  energy without entropy =     -124.41551041  energy(sigma->0) =     -124.41551041


--------------------------------------------------------------------------------------------------------




----------------------------------------- Iteration    1(  11)  ---------------------------------------


    POTLOK:  cpu time    0.0300: real time    0.0316
    SETDIJ:  cpu time    0.0090: real time    0.0085
     EDDAV:  cpu time   12.3381: real time   12.3490
 BZINTS: Fermi energy:  3.766312;156.000000 electrons
         Band energy:***********;  BLOECHL correction:  0.000000
       DOS:  cpu time    0.0070: real time    0.0070
    CHARGE:  cpu time    0.2760: real time    0.2761
    MIXING:  cpu time    0.0010: real time    0.0014
    --------------------------------------------
      LOOP:  cpu time   12.6631: real time   12.6765

 eigenvalue-minimisations  : 11200
 total energy-change (2. order) : 0.6314246E-03  (-0.7355715E-03)
 number of electron     156.0000000 magnetization 
 augmentation part      -14.5114142 magnetization 

 Broyden mixing:
  rms(total) = 0.13224E-01    rms(broyden)= 0.13219E-01
  rms(prec ) = 0.13700E-01
  weight for this iteration     100.00

 eigenvalues of (default mixing * dielectric matrix)
  average eigenvalue GAMMA=   1.3064
  2.5271  1.6072  1.6072  0.9503  0.5509  0.5958

 Free energy of the ion-electron system (eV)
  ---------------------------------------------------
  alpha Z        PSCENC =       494.70066135
  Ewald energy   TEWEN  =     42065.30457601
  -Hartree energ DENC   =    -55504.20934893
  -exchange      EXHF   =         0.00000000
  -V(xc)+E(xc)   XCENC  =       386.84093112
  PAW double counting   =     11344.33631494   -11154.79687601
  entropy T*S    EENTRO =         0.00000000
  eigenvalues    EBANDS =     -2010.54196276
  atomic energy  EATOM  =     14253.95082529
  Solvation  Ediel_sol  =         0.00000000
  ---------------------------------------------------
  free energy    TOTEN  =      -124.41487898 eV

  energy without entropy =     -124.41487898  energy(sigma->0) =     -124.41487898


--------------------------------------------------------------------------------------------------------




----------------------------------------- Iteration    1(  12)  ---------------------------------------


    POTLOK:  cpu time    0.0430: real time    0.0442
    SETDIJ:  cpu time    0.0090: real time    0.0086
     EDDAV:  cpu time   12.7041: real time   12.7141
 BZINTS: Fermi energy:  3.737269;156.000000 electrons
         Band energy:***********;  BLOECHL correction:  0.000000
       DOS:  cpu time    0.0070: real time    0.0069
    CHARGE:  cpu time    0.2740: real time    0.2738
    MIXING:  cpu time    0.0010: real time    0.0014
    --------------------------------------------
      LOOP:  cpu time   13.0390: real time   13.0541

 eigenvalue-minimisations  : 11648
 total energy-change (2. order) : 0.3840891E-03  (-0.1875186E-03)
 number of electron     156.0000000 magnetization 
 augmentation part      -14.4998618 magnetization 

 Broyden mixing:
  rms(total) = 0.54657E-02    rms(broyden)= 0.54622E-02
  rms(prec ) = 0.57432E-02
  weight for this iteration     100.00

 eigenvalues of (default mixing * dielectric matrix)
  average eigenvalue GAMMA=   1.3383
  2.3412  2.3412  1.5877  1.1126  0.8530  0.5508  0.5812

 Free energy of the ion-electron system (eV)
  ---------------------------------------------------
  alpha Z        PSCENC =       494.70066135
  Ewald energy   TEWEN  =     42065.30457601
  -Hartree energ DENC   =    -55504.21682494
  -exchange      EXHF   =         0.00000000
  -V(xc)+E(xc)   XCENC  =       386.81375403
  PAW double counting   =     11339.62493479   -11150.15628044
  entropy T*S    EENTRO =         0.00000000
  eigenvalues    EBANDS =     -2010.43614099
  atomic energy  EATOM  =     14253.95082529
  Solvation  Ediel_sol  =         0.00000000
  ---------------------------------------------------
  free energy    TOTEN  =      -124.41449489 eV

  energy without entropy =     -124.41449489  energy(sigma->0) =     -124.41449489


--------------------------------------------------------------------------------------------------------




----------------------------------------- Iteration    1(  13)  ---------------------------------------


    POTLOK:  cpu time    0.0360: real time    0.0363
    SETDIJ:  cpu time    0.0090: real time    0.0085
     EDDAV:  cpu time   11.6192: real time   11.6367
 BZINTS: Fermi energy:  3.708048;156.000000 electrons
[...]

  energy without entropy =       -2.83735291


----------------------------------------- Iteration    3(  22)  ---------------------------------------


   POT+DIJ:  cpu time    0.0830: real time    0.0839
    HAMIL1:  cpu time    2.2197: real time    2.2213
    LRDIAG:  cpu time    0.4349: real time    0.4349
    LRDIIS:  cpu time    7.8948: real time    7.9281
    LRDIAG:  cpu time    0.4349: real time    0.4364
    MIXING:  cpu time    0.0020: real time    0.0021
    --------------------------------------------
      LOOP:  cpu time   11.8032: real time   11.8435

 Broyden mixing:
  rms(total) = 0.14197E-05    rms(broyden)= 0.14187E-05
  rms(prec ) = 0.14711E-05
  weight for this iteration     100.00

 eigenvalues of (default mixing * dielectric matrix)
  average eigenvalue GAMMA=   1.9764
  8.4360  4.8433  3.9041  2.9341  2.9341  2.2626  2.2626  1.7663  1.5512  0.9624
  0.9624  1.0432  0.9761  0.9761  0.7460  0.6640  0.5468  0.5533  0.5506  0.6530

 Free energy of the ion-electron system (eV)
  ---------------------------------------------------
  -Hartree energ DENC   =        -1.81624583
  -V(xc)+E(xc)   XCENC  =         0.04612522
  PAW double counting   =         0.14467558       -0.14329622
  entropy T*S    EENTRO =         0.00000000
  eigenvalues    EBANDS =        -1.06861062
  ---------------------------------------------------
  free energy    TOTEN  =        -2.83735187 eV

  energy without entropy =       -2.83735187


----------------------------------------- Iteration    3(  23)  ---------------------------------------


   POT+DIJ:  cpu time    0.0850: real time    0.0845
    HAMIL1:  cpu time    2.2177: real time    2.2196
    LRDIAG:  cpu time    0.4349: real time    0.4346
    LRDIIS:  cpu time    7.8148: real time    7.8200
    LRDIAG:  cpu time    0.4289: real time    0.4294
    MIXING:  cpu time    0.0020: real time    0.0021
    --------------------------------------------
      LOOP:  cpu time   11.7282: real time   11.7368

 Broyden mixing:
  rms(total) = 0.60737E-06    rms(broyden)= 0.60675E-06
  rms(prec ) = 0.62816E-06
  weight for this iteration     100.00

 eigenvalues of (default mixing * dielectric matrix)
  average eigenvalue GAMMA=   1.9407
  8.4362  4.8504  3.8666  3.1711  2.7420  2.4548  1.9579  1.9579  1.4943  1.1366
  1.1366  0.9628  0.9628  0.9581  0.9581  0.7459  0.6640  0.5468  0.5533  0.5505
  0.6471

 Free energy of the ion-electron system (eV)
  ---------------------------------------------------
  -Hartree energ DENC   =        -1.81624692
  -V(xc)+E(xc)   XCENC  =         0.04612550
  PAW double counting   =         0.14467363       -0.14329431
  entropy T*S    EENTRO =         0.00000000
  eigenvalues    EBANDS =        -1.06861622
  ---------------------------------------------------
  free energy    TOTEN  =        -2.83735831 eV

  energy without entropy =       -2.83735831


------------------------ aborting loop because EDIFF is reached ----------------------------------------


 change of polarisation eV/A/(eV/A) component  3 :    -0.018     0.003     5.530
 dielectric tensor                  component  3 :    -0.007     0.001     3.097


--------------------------------------------------------------------------------------------------------


    FORLOC:  cpu time    0.0040: real time    0.0042
    FORNL :  cpu time    3.2005: real time    3.2006
    STRESS:  cpu time    6.8590: real time    6.8608
    FORCOR:  cpu time    0.0320: real time    0.0325
    OFIELD:  cpu time    0.0010: real time    0.0003

  Hirshfeld charges:
            ion         q(e)     
   ------------------------------
      1     Mo          0.310
      2     Mo          0.308
      3     Mo          0.308
      4     Mo          0.308
      5     Mo          0.308
      6     Mo          0.310
      7     Se         -0.154
      8     Se         -0.155
      9     Se         -0.154
     10     Se         -0.154
     11     Se         -0.154
     12     Se         -0.154
     13     Se         -0.154
     14     Se         -0.154
     15     Se         -0.154
     16     Se         -0.154
     17     Se         -0.155
     18     Se         -0.154

  Tkatchenko/Scheffler method for vdW energy calculation
  ---------------------------------------------------------------------------------------------

  Parameters of vdW forcefield:
            C6ts              R0ts           ALPHAts        RELVOL
            (au)              (au)            (au)                
   ---------------------------------------------------------------
   Mo       1086.650          4.138         90.875          1.028
   Mo       1094.555          4.143         91.205          1.031
   Mo       1094.573          4.143         91.205          1.032
   Mo       1094.573          4.143         91.205          1.032
   Mo       1094.555          4.143         91.205          1.031
   Mo       1086.650          4.138         90.875          1.028
   Se        215.628          4.062         25.333          1.013
   Se        211.150          4.048         25.068          1.003
   Se        215.638          4.062         25.333          1.013
   Se        215.624          4.062         25.332          1.013
   Se        215.639          4.062         25.333          1.013
   Se        215.638          4.062         25.333          1.013
   Se        215.639          4.062         25.333          1.013
   Se        215.639          4.062         25.333          1.013
   Se        215.624          4.062         25.332          1.013
   Se        215.638          4.062         25.333          1.013
   Se        211.150          4.048         25.068          1.003
   Se        215.628          4.062         25.333          1.013
  Edisp (eV):   -5.59466
    FORVDW:  cpu time    0.7349: real time    0.7349
    FORLOC:  cpu time    0.0040: real time    0.0043
    FORNL :  cpu time    3.2135: real time    3.2126
    STRESS:  cpu time    6.8350: real time    6.8627
    FORCOR:  cpu time    0.0340: real time    0.0346
    OFIELD:  cpu time    0.0010: real time    0.0003

  Hirshfeld charges:
            ion         q(e)     
   ------------------------------
      1     Mo          0.310
      2     Mo          0.308
      3     Mo          0.308
      4     Mo          0.308
      5     Mo          0.308
      6     Mo          0.310
      7     Se         -0.154
      8     Se         -0.155
      9     Se         -0.154
     10     Se         -0.154
     11     Se         -0.154
     12     Se         -0.154
     13     Se         -0.154
     14     Se         -0.154
     15     Se         -0.154
     16     Se         -0.154
     17     Se         -0.155
     18     Se         -0.154

  Tkatchenko/Scheffler method for vdW energy calculation
  ---------------------------------------------------------------------------------------------

  Parameters of vdW forcefield:
            C6ts              R0ts           ALPHAts        RELVOL
            (au)              (au)            (au)                
   ---------------------------------------------------------------
   Mo       1086.650          4.138         90.875          1.028
   Mo       1094.555          4.143         91.205          1.031
   Mo       1094.573          4.143         91.205          1.032
   Mo       1094.573          4.143         91.205          1.032
   Mo       1094.555          4.143         91.205          1.031
   Mo       1086.650          4.138         90.875          1.028
   Se        215.628          4.062         25.333          1.013
   Se        211.150          4.048         25.068          1.003
   Se        215.638          4.062         25.333          1.013
   Se        215.624          4.062         25.332          1.013
   Se        215.639          4.062         25.333          1.013
   Se        215.639          4.062         25.333          1.013
   Se        215.638          4.062         25.333          1.013
   Se        215.639          4.062         25.333          1.013
   Se        215.624          4.062         25.332          1.013
   Se        215.638          4.062         25.333          1.013
   Se        211.150          4.048         25.068          1.003
   Se        215.628          4.062         25.333          1.013
  Edisp (eV):   -5.59466
    FORVDW:  cpu time    0.7359: real time    0.7351
    FORNLD:  cpu time    6.6300: real time    6.6347

 PIEZOELECTRIC TENSOR FIELD DIRECTION 3  (e Angst)
 -----------------------------------------------------------------------------
     0.26765 -0.00000  0.00000           ( -0.00000 -0.00000  0.00000)
     0.00000  0.26765  0.00000           (  0.00000 -0.00000  0.00000)
    -0.00000 -0.00000 -0.41022           (  0.00000  0.00000  0.00001)

 PIEZOELECTRIC TENSOR FIELD DIRECTION 3  (C/m^2)
 -----------------------------------------------------------------------------
     0.00899 -0.00000  0.00000
     0.00000  0.00899  0.00000
    -0.00000 -0.00000 -0.01377


      POSITION         DIRECTION 3           BORN EFFECTIVE CHARGE    (rigid.aug.   ionic)
 -----------------------------------------------------------------------------------------
     -0.00000      0.95833      8.85000     0.00000 -0.00000-72.50292 (  0.16871 14.00000)
      1.65987      1.91666     15.31000     0.00000  0.00000-26.62953 (  0.16858 14.00000)
     -0.00000      0.95833     21.77000    -0.00000  0.00000 -2.65123 (  0.16857 14.00000)
      1.65987      1.91666     28.23000     0.00000  0.00000 -2.65033 (  0.16857 14.00000)
     -0.00000      0.95833     34.69000     0.00000  0.00000-26.52428 (  0.16858 14.00000)
      1.65987      1.91666     41.15000     0.00000 -0.00000-72.54687 (  0.16871 14.00000)
      1.65987      1.91666     10.51903    -0.00000 -0.00000 -2.11574 (  1.12429  6.00000)
      1.65987      1.91666      7.18097    -0.00000 -0.00000 -3.35839 (  1.12264  6.00000)
     -0.00000      0.95833     16.97903    -0.00000  0.00000 -0.78704 (  1.12432  6.00000)
     -0.00000      0.95833     13.64097     0.00000  0.00000 -1.23962 (  1.12431  6.00000)
      1.65987      1.91666     23.43903    -0.00000  0.00000  0.83492 (  1.12432  6.00000)
      1.65987      1.91666     20.10097    -0.00000 -0.00000  1.10893 (  1.12432  6.00000)
     -0.00000      0.95833     29.89903    -0.00000  0.00000  0.88323 (  1.12432  6.00000)
     -0.00000      0.95833     26.56097    -0.00000 -0.00000  0.75647 (  1.12432  6.00000)
      1.65987      1.91666     36.35903     0.00000  0.00000 -0.91017 (  1.12431  6.00000)
      1.65987      1.91666     33.02097    -0.00000  0.00000 -0.55281 (  1.12432  6.00000)
     -0.00000      0.95833     42.81903    -0.00000  0.00000 -3.42656 (  1.12264  6.00000)
     -0.00000      0.95833     39.48097    -0.00000  0.00000 -2.43271 (  1.12429  6.00000)
 -----------------------------------------------------------------------------------------
    total drift (improves with k-points):  -0.00000  0.00000*********




--------------------------------------------------------------------------------------------------------


  LATTYP: Found a hexagonal cell.
 ALAT       =     3.3197487879
 C/A-ratio  =    15.0613806029
  
  Lattice vectors:
  
 A1 = (   3.3197487879,   0.0000000000,   0.0000000000)
 A2 = (  -1.6598743939,   2.8749867845,   0.0000000000)
 A3 = (   0.0000000000,   0.0000000000,  50.0000000000)


Analysis of symmetry for initial positions (statically):
=====================================================================
 Subroutine PRICEL returns:
 Original cell was already a primitive cell.
 

 Routine SETGRP: Setting up the symmetry group for a 
 hexagonal supercell.


 Subroutine GETGRP returns: Found 12 space group operations
 (whereof  4 operations were pure point group operations)
 out of a pool of 24 trial point group operations.


The static configuration has the point symmetry C_2h.
 The point group associated with its full space group is D_3d.


Analysis of symmetry for dynamics (positions and initial velocities):
=====================================================================
 Subroutine PRICEL returns:
 Original cell was already a primitive cell.
 

 Routine SETGRP: Setting up the symmetry group for a 
 hexagonal supercell.


 Subroutine GETGRP returns: Found 12 space group operations
 (whereof  4 operations were pure point group operations)
 out of a pool of 24 trial point group operations.


The dynamic configuration has the point symmetry C_2h.
 The point group associated with its full space group is D_3d.


 Subroutine INISYM returns: Found 12 space group operations
 (whereof  4 operations are pure point group operations),
 and found     1 'primitive' translations



 MACROSCOPIC STATIC DIELECTRIC TENSOR (including local field effects in DFT)
 ------------------------------------------------------
          13.344315    -0.000000     0.000000
           0.000000    13.344315     0.000000
           0.000000     0.000000     3.096811
 ------------------------------------------------------



--------------------------------------------------------------------------------------------------------


  LATTYP: Found a hexagonal cell.
 ALAT       =     3.3197487879
 C/A-ratio  =    15.0613806029
  
  Lattice vectors:
  
 A1 = (   3.3197487879,   0.0000000000,   0.0000000000)
 A2 = (  -1.6598743939,   2.8749867845,   0.0000000000)
 A3 = (   0.0000000000,   0.0000000000,  50.0000000000)


Analysis of symmetry for initial positions (statically):
=====================================================================
 Subroutine PRICEL returns:
 Original cell was already a primitive cell.
 

 Routine SETGRP: Setting up the symmetry group for a 
 hexagonal supercell.


 Subroutine GETGRP returns: Found 12 space group operations
 (whereof  4 operations were pure point group operations)
 out of a pool of 24 trial point group operations.


The static configuration has the point symmetry C_2h.
 The point group associated with its full space group is D_3d.


Analysis of symmetry for dynamics (positions and initial velocities):
=====================================================================
 Subroutine PRICEL returns:
 Original cell was already a primitive cell.
 

 Routine SETGRP: Setting up the symmetry group for a 
 hexagonal supercell.


 Subroutine GETGRP returns: Found 12 space group operations
 (whereof  4 operations were pure point group operations)
 out of a pool of 24 trial point group operations.


The dynamic configuration has the point symmetry C_2h.
 The point group associated with its full space group is D_3d.


 Subroutine INISYM returns: Found 12 space group operations
 (whereof  4 operations are pure point group operations),
 and found     1 'primitive' translations



--------------------------------------------------------------------------------------------------------




 MACROSCOPIC STATIC DIELECTRIC TENSOR (including local field effects in DFT)
 ------------------------------------------------------
          13.344315    -0.000000     0.000000
           0.000000    13.344315     0.000000
           0.000000     0.000000     3.096811
 ------------------------------------------------------


 PIEZOELECTRIC TENSOR  for field in x, y, z        (e  Angst)
          XX          YY          ZZ          XY          YZ          ZX
  --------------------------------------------------------------------------------
  x    -0.01026     0.01308    -0.00246     0.00000     0.00029     0.00000
  y    -0.01506     0.02552    -0.00200     0.00000     0.00026     0.00000
  z     0.26765     0.26765    -0.41022     0.00000    -0.00000     0.00000

 PIEZOELECTRIC TENSOR  for field in x, y, z        (C/m^2)
          XX          YY          ZZ          XY          YZ          ZX
  --------------------------------------------------------------------------------
  x     0.00000     0.00000     0.00000     0.00000     0.00000     0.00000
  y     0.00000     0.00000     0.00000     0.00000     0.00000     0.00000
  z     0.00000     0.00000     0.00000     0.00000     0.00000     0.00000
 
 BORN EFFECTIVE CHARGES (in e, cummulative output)
 -------------------------------------------------
 ion    1
    1    -1.77952    -0.00002     0.00003
    2     0.00000    -1.78003    -0.00006
    3     0.00000    -0.00000   -72.50292
 ion    2
    1    -1.76852    -0.00001     0.00000
    2    -0.00000    -1.76795    -0.00000
    3     0.00000     0.00000   -26.62953
 ion    3
    1    -1.76788     0.00001     0.00000
    2    -0.00000    -1.76847     0.00000
    3    -0.00000     0.00000    -2.65123
 ion    4
    1    -1.76788    -0.00001    -0.00000
    2     0.00000    -1.76730    -0.00000
    3     0.00000     0.00000    -2.65033
 ion    5
    1    -1.76852     0.00001    -0.00000
    2     0.00000    -1.76910     0.00000
    3     0.00000     0.00000   -26.52428
 ion    6
    1    -1.77952     0.00002    -0.00003
    2    -0.00000    -1.77901     0.00006
    3     0.00000    -0.00000   -72.54687
 ion    7
    1     0.86438    -0.00168     0.00018
    2    -0.00000     0.86475     0.00115
    3    -0.00000    -0.00000    -2.11574
 ion    8
    1     0.87981    -0.00160    -0.00009
    2     0.00000     0.88012    -0.00066
    3    -0.00000    -0.00000    -3.35839
 ion    9
    1     0.86658     0.00171     0.00019
    2    -0.00000     0.86620     0.00109
    3    -0.00000     0.00000    -0.78704
 ion   10
    1     0.86729     0.00171    -0.00019
    2     0.00000     0.86691    -0.00108
    3     0.00000     0.00000    -1.23962
 ion   11
    1     0.86656    -0.00171     0.00019
    2     0.00000     0.86695     0.00111
    3    -0.00000     0.00000     0.83492
 ion   12
    1     0.86656    -0.00171    -0.00019
    2     0.00000     0.86695    -0.00111
    3    -0.00000    -0.00000     1.10893
 ion   13
    1     0.86656     0.00171     0.00019
    2    -0.00000     0.86617     0.00110
    3    -0.00000     0.00000     0.88323
 ion   14
    1     0.86656     0.00171    -0.00019
    2    -0.00000     0.86618    -0.00110
    3    -0.00000    -0.00000     0.75647
 ion   15
    1     0.86729    -0.00171     0.00019
    2    -0.00000     0.86767     0.00108
    3     0.00000     0.00000    -0.91017
 ion   16
    1     0.86658    -0.00171    -0.00019
    2     0.00000     0.86697    -0.00109
    3    -0.00000     0.00000    -0.55281
 ion   17
    1     0.87981     0.00160     0.00009
    2     0.00000     0.87949     0.00065
    3    -0.00000     0.00000    -3.42656
 ion   18
    1     0.86438     0.00168    -0.00018
    2    -0.00000     0.86401    -0.00113
    3    -0.00000     0.00000    -2.43271


--------------------------------------------------------------------------------------------------------


 writing wavefunctions
     LOOP+:  cpu time 2642.7242: real time 2651.1796
    4ORBIT:  cpu time    0.0000: real time    0.0000
 BZINTS: Fermi energy:  3.794759;156.000000 electrons
         Band energy:***********;  BLOECHL correction:  0.000000

 total amount of memory used by VASP on root node   232566. kBytes
========================================================================

   base      :      30000. kBytes
   nonl-proj :     173295. kBytes
   fftplans  :       2116. kBytes
   grid      :       8000. kBytes
   one-center:       1452. kBytes
   wavefun   :      17703. kBytes
 
  
  
 General timing and accounting informations for this job:
 ========================================================
  
                  Total CPU time used (sec):     2646.760
                            User time (sec):     2600.233
                          System time (sec):       46.527
                         Elapsed time (sec):     2656.553
  
                   Maximum memory used (kb):      707472.
                   Average memory used (kb):           0.
  
                          Minor page faults:     12794193
                          Major page faults:            9
                 Voluntary context switches:         6538
