   6   6   0   0
  0.9081714E+02  0.3547392E-09  0.3547392E-09  0.5000000E-08  0.5000000E-15
  1.000000000000000E-004
  CAR 
 unknown system                          
     12.71669698    -65.60416116  301     -1.05472057      1.00000000
    -65.604  0.0000E+00  0.0000E+00
    -65.343  0.0000E+00  0.0000E+00
    -65.082  0.0000E+00  0.0000E+00
    -64.821  0.0000E+00  0.0000E+00
    -64.560  0.0000E+00  0.0000E+00
    -64.299  0.0000E+00  0.0000E+00
    -64.038  0.0000E+00  0.0000E+00
    -63.777  0.0000E+00  0.0000E+00
    -63.516  0.0000E+00  0.0000E+00
    -63.255  0.0000E+00  0.0000E+00
    -62.993  0.0000E+00  0.0000E+00
    -62.732  0.0000E+00  0.0000E+00
    -62.471  0.0000E+00  0.0000E+00
    -62.210  0.0000E+00  0.0000E+00
    -61.949  0.0000E+00  0.4000E+01
    -61.688  0.0000E+00  0.4000E+01
    -61.427  0.0000E+00  0.4000E+01
    -61.166  0.0000E+00  0.4000E+01
    -60.905  0.0000E+00  0.4000E+01
    -60.644  0.0000E+00  0.4000E+01
    -60.383  0.0000E+00  0.4000E+01
    -60.122  0.0000E+00  0.4000E+01
    -59.861  0.0000E+00  0.4000E+01
    -59.600  0.0000E+00  0.4000E+01
    -59.338  0.0000E+00  0.4000E+01
    -59.077  0.0000E+00  0.4000E+01
    -58.816  0.0000E+00  0.4000E+01
    -58.555  0.0000E+00  0.4000E+01
    -58.294  0.0000E+00  0.4000E+01
    -58.033  0.0000E+00  0.4000E+01
    -57.772  0.0000E+00  0.4000E+01
    -57.511  0.0000E+00  0.4000E+01
    -57.250  0.0000E+00  0.4000E+01
    -56.989  0.0000E+00  0.4000E+01
    -56.728  0.0000E+00  0.4000E+01
    -56.467  0.0000E+00  0.4000E+01
    -56.206  0.0000E+00  0.4000E+01
    -55.945  0.0000E+00  0.4000E+01
    -55.684  0.0000E+00  0.4000E+01
    -55.422  0.0000E+00  0.4000E+01
    -55.161  0.0000E+00  0.4000E+01
    -54.900  0.0000E+00  0.4000E+01
    -54.639  0.0000E+00  0.4000E+01
    -54.378  0.0000E+00  0.4000E+01
    -54.117  0.0000E+00  0.4000E+01
    -53.856  0.0000E+00  0.4000E+01
    -53.595  0.0000E+00  0.4000E+01
    -53.334  0.0000E+00  0.4000E+01
    -53.073  0.0000E+00  0.4000E+01
    -52.812  0.0000E+00  0.4000E+01
    -52.551  0.0000E+00  0.4000E+01
    -52.290  0.0000E+00  0.4000E+01
    -52.029  0.0000E+00  0.4000E+01
    -51.767  0.0000E+00  0.4000E+01
    -51.506  0.0000E+00  0.4000E+01
    -51.245  0.0000E+00  0.4000E+01
    -50.984  0.0000E+00  0.4000E+01
    -50.723  0.0000E+00  0.4000E+01
    -50.462  0.0000E+00  0.4000E+01
    -50.201  0.0000E+00  0.4000E+01
    -49.940  0.0000E+00  0.4000E+01
    -49.679  0.0000E+00  0.4000E+01
    -49.418  0.0000E+00  0.4000E+01
    -49.157  0.0000E+00  0.4000E+01
    -48.896  0.0000E+00  0.4000E+01
    -48.635  0.0000E+00  0.4000E+01
    -48.374  0.0000E+00  0.4000E+01
    -48.113  0.0000E+00  0.4000E+01
    -47.851  0.0000E+00  0.4000E+01
    -47.590  0.0000E+00  0.4000E+01
    -47.329  0.0000E+00  0.4000E+01
    -47.068  0.0000E+00  0.4000E+01
    -46.807  0.0000E+00  0.4000E+01
    -46.546  0.0000E+00  0.4000E+01
    -46.285  0.0000E+00  0.4000E+01
    -46.024  0.0000E+00  0.4000E+01
    -45.763  0.0000E+00  0.4000E+01
    -45.502  0.0000E+00  0.4000E+01
    -45.241  0.0000E+00  0.4000E+01
    -44.980  0.0000E+00  0.4000E+01
    -44.719  0.0000E+00  0.4000E+01
    -44.458  0.0000E+00  0.4000E+01
    -44.196  0.0000E+00  0.4000E+01
    -43.935  0.0000E+00  0.4000E+01
    -43.674  0.0000E+00  0.4000E+01
    -43.413  0.0000E+00  0.4000E+01
    -43.152  0.0000E+00  0.4000E+01
    -42.891  0.0000E+00  0.4000E+01
    -42.630  0.0000E+00  0.4000E+01
    -42.369  0.0000E+00  0.4000E+01
    -42.108  0.0000E+00  0.4000E+01
    -41.847  0.0000E+00  0.4000E+01
    -41.586  0.0000E+00  0.4000E+01
    -41.325  0.0000E+00  0.4000E+01
    -41.064  0.0000E+00  0.4000E+01
    -40.803  0.0000E+00  0.4000E+01
    -40.541  0.0000E+00  0.4000E+01
    -40.280  0.0000E+00  0.4000E+01
    -40.019  0.0000E+00  0.4000E+01
    -39.758  0.0000E+00  0.4000E+01
    -39.497  0.0000E+00  0.4000E+01
    -39.236  0.0000E+00  0.4000E+01
    -38.975  0.0000E+00  0.4000E+01
    -38.714  0.0000E+00  0.4000E+01
    -38.453  0.0000E+00  0.4000E+01
    -38.192  0.0000E+00  0.4000E+01
    -37.931  0.0000E+00  0.4000E+01
    -37.670  0.0000E+00  0.4000E+01
    -37.409  0.0000E+00  0.4000E+01
    -37.148  0.0000E+00  0.4000E+01
    -36.887  0.0000E+00  0.4000E+01
    -36.625  0.0000E+00  0.4000E+01
    -36.364  0.0000E+00  0.4000E+01
    -36.103  0.1066E+03  0.1408E+02
    -35.842  0.0000E+00  0.1600E+02
    -35.581  0.0000E+00  0.1600E+02
    -35.320  0.0000E+00  0.1600E+02
    -35.059  0.0000E+00  0.1600E+02
    -34.798  0.0000E+00  0.1600E+02
    -34.537  0.0000E+00  0.1600E+02
    -34.276  0.0000E+00  0.1600E+02
    -34.015  0.0000E+00  0.1600E+02
    -33.754  0.0000E+00  0.1600E+02
    -33.493  0.0000E+00  0.1600E+02
    -33.232  0.0000E+00  0.1600E+02
    -32.970  0.0000E+00  0.1600E+02
    -32.709  0.0000E+00  0.1600E+02
    -32.448  0.0000E+00  0.1600E+02
    -32.187  0.0000E+00  0.1600E+02
    -31.926  0.0000E+00  0.1600E+02
    -31.665  0.0000E+00  0.1600E+02
    -31.404  0.0000E+00  0.1600E+02
    -31.143  0.0000E+00  0.1600E+02
    -30.882  0.0000E+00  0.1600E+02
    -30.621  0.0000E+00  0.1600E+02
    -30.360  0.0000E+00  0.1600E+02
    -30.099  0.0000E+00  0.1600E+02
    -29.838  0.0000E+00  0.1600E+02
    -29.577  0.0000E+00  0.1600E+02
    -29.315  0.0000E+00  0.1600E+02
    -29.054  0.0000E+00  0.1600E+02
    -28.793  0.0000E+00  0.1600E+02
    -28.532  0.0000E+00  0.1600E+02
    -28.271  0.0000E+00  0.1600E+02
    -28.010  0.0000E+00  0.1600E+02
    -27.749  0.0000E+00  0.1600E+02
    -27.488  0.0000E+00  0.1600E+02
    -27.227  0.0000E+00  0.1600E+02
    -26.966  0.0000E+00  0.1600E+02
    -26.705  0.0000E+00  0.1600E+02
    -26.444  0.0000E+00  0.1600E+02
    -26.183  0.0000E+00  0.1600E+02
    -25.922  0.0000E+00  0.1600E+02
    -25.661  0.0000E+00  0.1600E+02
    -25.399  0.0000E+00  0.1600E+02
    -25.138  0.0000E+00  0.1600E+02
    -24.877  0.0000E+00  0.1600E+02
    -24.616  0.0000E+00  0.1600E+02
    -24.355  0.0000E+00  0.1600E+02
    -24.094  0.0000E+00  0.1600E+02
    -23.833  0.0000E+00  0.1600E+02
    -23.572  0.0000E+00  0.1600E+02
    -23.311  0.0000E+00  0.1600E+02
    -23.050  0.0000E+00  0.1600E+02
    -22.789  0.0000E+00  0.1600E+02
    -22.528  0.0000E+00  0.1600E+02
    -22.267  0.0000E+00  0.1600E+02
    -22.006  0.0000E+00  0.1600E+02
    -21.744  0.0000E+00  0.1600E+02
    -21.483  0.0000E+00  0.1600E+02
    -21.222  0.0000E+00  0.1600E+02
    -20.961  0.0000E+00  0.1600E+02
    -20.700  0.0000E+00  0.1600E+02
    -20.439  0.0000E+00  0.1600E+02
    -20.178  0.0000E+00  0.1600E+02
    -19.917  0.0000E+00  0.1600E+02
    -19.656  0.0000E+00  0.1600E+02
    -19.395  0.0000E+00  0.1600E+02
    -19.134  0.0000E+00  0.1600E+02
    -18.873  0.0000E+00  0.1600E+02
    -18.612  0.0000E+00  0.1600E+02
    -18.351  0.0000E+00  0.1600E+02
    -18.090  0.0000E+00  0.1600E+02
    -17.828  0.0000E+00  0.1600E+02
    -17.567  0.0000E+00  0.1600E+02
    -17.306  0.0000E+00  0.1600E+02
    -17.045  0.0000E+00  0.1600E+02
    -16.784  0.0000E+00  0.1600E+02
    -16.523  0.0000E+00  0.1600E+02
    -16.262  0.0000E+00  0.1600E+02
    -16.001  0.0000E+00  0.1600E+02
    -15.740  0.0000E+00  0.1600E+02
    -15.479  0.0000E+00  0.1600E+02
    -15.218  0.0000E+00  0.1600E+02
    -14.957  0.0000E+00  0.1600E+02
    -14.696  0.0000E+00  0.1600E+02
    -14.435  0.0000E+00  0.1600E+02
    -14.173  0.0000E+00  0.1600E+02
    -13.912  0.5827E+00  0.1606E+02
    -13.651  0.1100E+01  0.1631E+02
    -13.390  0.1197E+01  0.1661E+02
    -13.129  0.1280E+01  0.1693E+02
    -12.868  0.2164E+01  0.1746E+02
    -12.607  0.3297E+01  0.1826E+02
    -12.346  0.3910E+01  0.1919E+02
    -12.085  0.5638E+01  0.2038E+02
    -11.824  0.6095E+01  0.2206E+02
    -11.563  0.3674E+01  0.2366E+02
    -11.302  0.0000E+00  0.2400E+02
    -11.041  0.0000E+00  0.2400E+02
    -10.780  0.0000E+00  0.2400E+02
    -10.518  0.0000E+00  0.2400E+02
    -10.257  0.0000E+00  0.2400E+02
     -9.996  0.0000E+00  0.2400E+02
     -9.735  0.0000E+00  0.2400E+02
     -9.474  0.0000E+00  0.2400E+02
     -9.213  0.0000E+00  0.2400E+02
     -8.952  0.0000E+00  0.2400E+02
     -8.691  0.0000E+00  0.2400E+02
     -8.430  0.0000E+00  0.2400E+02
     -8.169  0.0000E+00  0.2400E+02
     -7.908  0.0000E+00  0.2400E+02
     -7.647  0.0000E+00  0.2400E+02
     -7.386  0.0000E+00  0.2400E+02
     -7.125  0.0000E+00  0.2400E+02
     -6.864  0.0000E+00  0.2400E+02
     -6.602  0.2388E+01  0.2423E+02
     -6.341  0.2545E+01  0.2486E+02
     -6.080  0.3681E+01  0.2564E+02
     -5.819  0.1122E+02  0.2732E+02
     -5.558  0.3754E+01  0.2890E+02
     -5.297  0.3168E+01  0.2993E+02
     -5.036  0.1652E+01  0.3039E+02
     -4.775  0.8509E+01  0.3163E+02
     -4.514  0.1174E+02  0.3307E+02
     -4.253  0.3463E+01  0.3471E+02
     -3.992  0.6198E+01  0.3605E+02
     -3.731  0.5922E+01  0.3763E+02
     -3.470  0.4075E+01  0.3908E+02
     -3.209  0.3362E+01  0.4004E+02
     -2.947  0.8519E+01  0.4165E+02
     -2.686  0.5304E+01  0.4391E+02
     -2.425  0.6645E+01  0.4595E+02
     -2.164  0.2694E+01  0.4752E+02
     -1.903  0.5166E+01  0.4915E+02
     -1.642  0.6755E+01  0.5086E+02
     -1.381  0.1455E+01  0.5184E+02
     -1.120  0.0000E+00  0.5200E+02
     -0.859  0.0000E+00  0.5200E+02
     -0.598  0.0000E+00  0.5200E+02
     -0.337  0.0000E+00  0.5200E+02
     -0.076  0.5412E+01  0.5281E+02
      0.185  0.8835E+01  0.5463E+02
      0.446  0.9509E+01  0.5724E+02
      0.707  0.5967E+01  0.5909E+02
      0.969  0.4551E+01  0.6049E+02
      1.230  0.4043E+01  0.6212E+02
      1.491  0.2878E+01  0.6299E+02
      1.752  0.2298E+01  0.6365E+02
      2.013  0.7454E+01  0.6538E+02
      2.274  0.2787E+01  0.6643E+02
      2.535  0.2534E+01  0.6764E+02
      2.796  0.1151E+01  0.6804E+02
      3.057  0.2092E+01  0.6836E+02
      3.318  0.2423E+01  0.6892E+02
      3.579  0.2996E+01  0.6970E+02
      3.840  0.4091E+01  0.7064E+02
      4.101  0.4312E+01  0.7162E+02
      4.362  0.4276E+01  0.7282E+02
      4.624  0.5102E+01  0.7412E+02
      4.885  0.5838E+01  0.7558E+02
      5.146  0.8542E+01  0.7738E+02
      5.407  0.7065E+01  0.7950E+02
      5.668  0.8560E+01  0.8138E+02
      5.929  0.9343E+01  0.8392E+02
      6.190  0.1028E+02  0.8643E+02
      6.451  0.8845E+01  0.8894E+02
      6.712  0.9017E+01  0.9143E+02
      6.973  0.1343E+02  0.9431E+02
      7.234  0.8474E+01  0.9697E+02
      7.495  0.1023E+02  0.9968E+02
      7.756  0.8306E+01  0.1022E+03
      8.017  0.1219E+02  0.1048E+03
      8.279  0.8786E+01  0.1075E+03
      8.540  0.7224E+01  0.1098E+03
      8.801  0.4627E+01  0.1113E+03
      9.062  0.5263E+00  0.1119E+03
      9.323  0.0000E+00  0.1120E+03
      9.584  0.0000E+00  0.1120E+03
      9.845  0.0000E+00  0.1120E+03
     10.106  0.0000E+00  0.1120E+03
     10.367  0.0000E+00  0.1120E+03
     10.628  0.0000E+00  0.1120E+03
     10.889  0.0000E+00  0.1120E+03
     11.150  0.0000E+00  0.1120E+03
     11.411  0.0000E+00  0.1120E+03
     11.672  0.0000E+00  0.1120E+03
     11.933  0.0000E+00  0.1120E+03
     12.195  0.0000E+00  0.1120E+03
     12.456  0.0000E+00  0.1120E+03
     12.717  0.0000E+00  0.1120E+03
