       N       E                     dE             d eps       ncg     rms          rms(c)
DAV:   1     0.226434443604E+03    0.22643E+03   -0.19972E+04  5572   0.513E+02
DAV:   2    -0.191944028940E+02   -0.24563E+03   -0.22224E+03  6188   0.168E+02
DAV:   3    -0.416387027405E+02   -0.22444E+02   -0.21812E+02  6104   0.530E+01
DAV:   4    -0.422654157109E+02   -0.62671E+00   -0.62513E+00  6244   0.863E+00
DAV:   5    -0.422818658406E+02   -0.16450E-01   -0.16448E-01  6524   0.136E+00    0.124E+01
DAV:   6    -0.401835833470E+02    0.20983E+01   -0.26256E+01  6916   0.221E+01    0.903E+00
DAV:   7    -0.378389221436E+02    0.23447E+01   -0.10059E+01  6916   0.135E+01    0.371E+00
DAV:   8    -0.376489109991E+02    0.19001E+00   -0.11906E+00  6832   0.482E+00    0.113E+00
DAV:   9    -0.376152157726E+02    0.33695E-01   -0.11373E-01  7196   0.161E+00    0.259E-01
DAV:  10    -0.376139426659E+02    0.12731E-02   -0.13419E-02  6104   0.479E-01    0.904E-02
DAV:  11    -0.376137074308E+02    0.23524E-03   -0.91904E-04  6188   0.108E-01    0.400E-02
DAV:  12    -0.376135875099E+02    0.11992E-03   -0.26342E-04  5768   0.639E-02    0.217E-02
DAV:  13    -0.376135388604E+02    0.48649E-04   -0.58283E-05  5768   0.275E-02    0.131E-02
DAV:  14    -0.376135778061E+02   -0.38946E-04   -0.36026E-05  5348   0.200E-02    0.734E-03
DAV:  15    -0.376136636355E+02   -0.85829E-04   -0.96659E-06  4928   0.794E-03    0.380E-03
DAV:  16    -0.376137293606E+02   -0.65725E-04   -0.31008E-06  4788   0.439E-03    0.201E-03
DAV:  17    -0.376137875490E+02   -0.58188E-04   -0.16928E-06  4732   0.325E-03    0.117E-03
DAV:  18    -0.376138109714E+02   -0.23422E-04   -0.41924E-07  4900   0.211E-03    0.862E-04
DAV:  19    -0.376138227634E+02   -0.11792E-04   -0.13463E-07  4704   0.999E-04    0.320E-04
DAV:  20    -0.376138292290E+02   -0.64656E-05   -0.91250E-08  4788   0.652E-04    0.176E-04
DAV:  21    -0.376138314596E+02   -0.22306E-05   -0.19494E-08  5152   0.302E-04    0.786E-05
DAV:  22    -0.376138326828E+02   -0.12232E-05   -0.75360E-09  4508   0.208E-04    0.538E-05
DAV:  23    -0.376138333104E+02   -0.62765E-06   -0.35345E-09  4508   0.167E-04    0.346E-05
DAV:  24    -0.376138335783E+02   -0.26786E-06   -0.88617E-10  4200   0.116E-04    0.189E-05
DAV:  25    -0.376138336556E+02   -0.77245E-07   -0.81375E-11  4452   0.641E-05    0.187E-05
DAV:  26    -0.376138337407E+02   -0.85155E-07   -0.56030E-11  3500   0.721E-05    0.125E-05
DAV:  27    -0.376138338120E+02   -0.71256E-07   -0.40076E-11  3276   0.658E-05    0.815E-06
DAV:  28    -0.376138338258E+02   -0.13875E-07   -0.20517E-12  3892   0.357E-05    0.312E-06
DAV:  29    -0.376138338312E+02   -0.54115E-08    0.42842E-11  3584   0.261E-05
   1 F= -.39402772E+02 E0= -.39402772E+02  d E =0.000000E+00
 Linear response reoptimize wavefunctions
DAV:   1    -0.376138338327E+02    0.17889E+01    0.41805E-11  3724   0.200E-05
DAV:   2    -0.376138338327E+02   -0.50932E-10    0.65514E-11  4872   0.862E-06
 Linear response G [H, r] |phi>, progress :
  Direction:   1
       N       E                     dE             d eps       ncg     rms
RMM:   1    -0.249128667212E+03   -0.24913E+03   -0.42086E+03  4645   0.543E+02
RMM:   2    -0.246480870646E+03    0.26478E+01   -0.64511E+01  7934   0.628E+01
RMM:   3    -0.260759678003E+03   -0.14279E+02   -0.73128E+01  9014   0.191E+01
RMM:   4    -0.262204576529E+03   -0.14449E+01   -0.23524E+00  9048   0.491E+00
RMM:   5    -0.262262363154E+03   -0.57787E-01   -0.17881E-01  9546   0.121E+00
RMM:   6    -0.262264887776E+03   -0.25246E-02   -0.12808E-02  9346   0.377E-01
RMM:   7    -0.262265242212E+03   -0.35444E-03   -0.22489E-03  9620   0.114E-01
RMM:   8    -0.262265268616E+03   -0.26404E-04   -0.13014E-04  9839   0.377E-02
RMM:   9    -0.262265278567E+03   -0.99508E-05   -0.28016E-05  9822   0.134E-02
RMM:  10    -0.262265282801E+03   -0.42341E-05   -0.27266E-05  9916   0.471E-03
RMM:  11    -0.262265281037E+03    0.17635E-05   -0.53355E-06 10156   0.194E-03
RMM:  12    -0.262265281952E+03   -0.91493E-06   -0.13542E-05 10636   0.924E-04
RMM:  13    -0.262265281800E+03    0.15265E-06   -0.11904E-05 10910   0.611E-04
RMM:  14    -0.262265281503E+03    0.29687E-06   -0.89137E-06 10942   0.515E-04
RMM:  15    -0.262265281709E+03   -0.20633E-06   -0.10975E-05 10901   0.494E-04
RMM:  16    -0.262265281557E+03    0.15255E-06   -0.94494E-06 10865   0.489E-04
 Linear response G [H, r] |phi>, progress :
  Direction:   2
       N       E                     dE             d eps       ncg     rms
RMM:   1    -0.240816937504E+03   -0.24082E+03   -0.43117E+03  4712   0.542E+02
RMM:   2    -0.263252352081E+03   -0.22435E+02   -0.47488E+01  7796   0.622E+01
RMM:   3    -0.277209024895E+03   -0.13957E+02   -0.58069E+01  8982   0.189E+01
RMM:   4    -0.278933949847E+03   -0.17249E+01   -0.26228E+00  8918   0.498E+00
RMM:   5    -0.278983241782E+03   -0.49292E-01   -0.18146E-01  9479   0.125E+00
RMM:   6    -0.278985682615E+03   -0.24408E-02   -0.12258E-02  9179   0.383E-01
RMM:   7    -0.278986120784E+03   -0.43817E-03   -0.22970E-03  9604   0.115E-01
RMM:   8    -0.278986141473E+03   -0.20688E-04    0.48256E-05  9732   0.368E-02
RMM:   9    -0.278986163847E+03   -0.22374E-04    0.25526E-05  9826   0.129E-02
RMM:  10    -0.278986167894E+03   -0.40474E-05    0.22482E-05  9809   0.447E-03
RMM:  11    -0.278986168105E+03   -0.21091E-06    0.24579E-05 10224   0.176E-03
RMM:  12    -0.278986168415E+03   -0.30985E-06    0.22269E-05 10670   0.830E-04
RMM:  13    -0.278986168571E+03   -0.15597E-06    0.20819E-05 10847   0.550E-04
RMM:  14    -0.278986167932E+03    0.63916E-06    0.27228E-05 10957   0.475E-04
RMM:  15    -0.278986167979E+03   -0.47327E-07    0.26757E-05 10889   0.458E-04
RMM:  16    -0.278986168204E+03   -0.22510E-06    0.24506E-05 10865   0.452E-04
 Linear response G [H, r] |phi>, progress :
  Direction:   3
       N       E                     dE             d eps       ncg     rms
RMM:   1    -0.256605973344E+03   -0.25661E+03   -0.45935E+03  4850   0.536E+02
RMM:   2    -0.261373314876E+03   -0.47673E+01   -0.75156E+01  7948   0.600E+01
RMM:   3    -0.272798511943E+03   -0.11425E+02   -0.56444E+01  8906   0.182E+01
RMM:   4    -0.274182810236E+03   -0.13843E+01   -0.25155E+00  8909   0.474E+00
RMM:   5    -0.274230037536E+03   -0.47227E-01   -0.12560E-01  9274   0.111E+00
RMM:   6    -0.274231457236E+03   -0.14197E-02   -0.84860E-03  9244   0.312E-01
RMM:   7    -0.274231646092E+03   -0.18886E-03   -0.12251E-03  9279   0.950E-02
RMM:   8    -0.274231661098E+03   -0.15006E-04   -0.11456E-04  9382   0.307E-02
RMM:   9    -0.274231663335E+03   -0.22366E-05   -0.18911E-05  9332   0.108E-02
RMM:  10    -0.274231663641E+03   -0.30580E-06   -0.23235E-06  9542   0.367E-03
RMM:  11    -0.274231663709E+03   -0.67813E-07   -0.65434E-07  9802   0.140E-03
RMM:  12    -0.274231663716E+03   -0.73214E-08   -0.33771E-07 10230   0.622E-04
RMM:  13    -0.274231663717E+03   -0.77148E-09   -0.29443E-07 10452   0.404E-04
RMM:  14    -0.274231663722E+03   -0.48807E-08   -0.33527E-07 10515   0.352E-04
RMM:  15    -0.274231663717E+03    0.46529E-08   -0.28782E-07 10556   0.341E-04
RMM:  16    -0.274231663721E+03   -0.38307E-08   -0.32591E-07 10525   0.339E-04
 Linear response to external field (no local field effect), progress :
  Direction:   1
       N       E                     dE             d eps       ncg     rms          rms(c)
RMM:   1    -0.471177231182E+01   -0.47118E+01   -0.27432E+01 10416   0.684E+00
RMM:   2    -0.798977747754E+01   -0.32780E+01    0.79712E-01  7141   0.202E+00
RMM:   3    -0.812086874770E+01   -0.13109E+00   -0.68768E-02  8924   0.533E-01
RMM:   4    -0.812290386339E+01   -0.20351E-02   -0.31147E-03  9087   0.124E-01
RMM:   5    -0.812301405903E+01   -0.11020E-03   -0.28649E-04  9345   0.353E-02
RMM:   6    -0.812302095430E+01   -0.68953E-05   -0.23353E-05  9250   0.117E-02
RMM:   7    -0.812302198349E+01   -0.10292E-05   -0.35974E-06  8835   0.366E-03
RMM:   8    -0.812302205370E+01   -0.70210E-07   -0.27222E-07  8595   0.117E-03
RMM:   9    -0.812302206398E+01   -0.10277E-07   -0.51484E-08  8294   0.374E-04
RMM:  10    -0.812302206474E+01   -0.75765E-09   -0.38139E-09  8328   0.128E-04
 Linear response to external field (no local field effect), progress :
  Direction:   2
       N       E                     dE             d eps       ncg     rms          rms(c)
RMM:   1    -0.527436159370E+01   -0.52744E+01   -0.30740E+01 10371   0.700E+00
RMM:   2    -0.843640072000E+01   -0.31620E+01    0.72384E-01  7184   0.207E+00
RMM:   3    -0.856056791218E+01   -0.12417E+00   -0.69579E-02  8852   0.547E-01
RMM:   4    -0.856264165859E+01   -0.20737E-02   -0.29402E-03  9025   0.132E-01
RMM:   5    -0.856275669555E+01   -0.11504E-03   -0.33315E-04  9368   0.384E-02
RMM:   6    -0.856276329598E+01   -0.66004E-05   -0.20392E-05  9159   0.124E-02
RMM:   7    -0.856276438667E+01   -0.10907E-05   -0.44342E-06  8867   0.410E-03
RMM:   8    -0.856276445515E+01   -0.68479E-07   -0.28150E-07  8511   0.131E-03
RMM:   9    -0.856276446485E+01   -0.96987E-08   -0.43438E-08  8294   0.430E-04
 Linear response to external field (no local field effect), progress :
  Direction:   3
       N       E                     dE             d eps       ncg     rms          rms(c)
RMM:   1    -0.354338783234E+01   -0.35434E+01   -0.17268E+01 10515   0.650E+00
RMM:   2    -0.461523415801E+01   -0.10718E+01   -0.38185E-02  6937   0.180E+00
RMM:   3    -0.464741935126E+01   -0.32185E-01   -0.37014E-02  8715   0.472E-01
RMM:   4    -0.464854665201E+01   -0.11273E-02   -0.22531E-03  9108   0.127E-01
RMM:   5    -0.464859973613E+01   -0.53084E-04   -0.19036E-04  9152   0.369E-02
RMM:   6    -0.464860382445E+01   -0.40883E-05   -0.16757E-05  9243   0.121E-02
RMM:   7    -0.464860440769E+01   -0.58324E-06   -0.18382E-06  8813   0.384E-03
RMM:   8    -0.464860445519E+01   -0.47504E-07   -0.22809E-07  8398   0.126E-03
RMM:   9    -0.464860446064E+01   -0.54489E-08   -0.20082E-08  8176   0.400E-04
 Linear response to external field, progress :
  Direction:   1
       N       E                     dE             d eps       ncg     rms          rms(c)
RMM:   1    -0.501508584852E+01   -0.50151E+01   -0.29306E+01 25504   0.685E+00
RMM:   2    -0.822252582438E+01   -0.32074E+01    0.67439E-01 17698   0.201E+00    0.559E+00
RMM:   3    -0.807898166328E+01    0.14354E+00   -0.96531E-02 18850   0.190E+00    0.300E+00
RMM:   4    -0.824906449431E+01   -0.17008E+00    0.19170E-01 19764   0.186E+00    0.474E-01
RMM:   5    -0.834526336431E+01   -0.96199E-01    0.13744E-02 20498   0.553E-01    0.773E-02
RMM:   6    -0.835798397573E+01   -0.12721E-01   -0.29278E-02 21965   0.131E-01    0.457E-02
RMM:   7    -0.835358901759E+01    0.43950E-02    0.32691E-02 22016   0.445E-02    0.300E-02
RMM:   8    -0.836030867311E+01   -0.67197E-02   -0.18000E-02 20034   0.252E-02    0.731E-03
RMM:   9    -0.835905624409E+01    0.12524E-02   -0.30550E-04 21202   0.964E-03    0.371E-03
RMM:  10    -0.835938875931E+01   -0.33252E-03   -0.73126E-05 20732   0.422E-03    0.101E-03
RMM:  11    -0.835939094858E+01   -0.21893E-05    0.38008E-04 22548   0.146E-03    0.563E-04
RMM:  12    -0.835945219605E+01   -0.61247E-04    0.29549E-04 20677   0.680E-04    0.137E-04
RMM:  13    -0.835948932270E+01   -0.37127E-04   -0.78505E-05 22583   0.225E-04    0.615E-05
RMM:  14    -0.835948689388E+01    0.24288E-05   -0.64016E-05 21393   0.898E-05    0.216E-05
RMM:  15    -0.835948025750E+01    0.66364E-05    0.76975E-06 19851   0.338E-05    0.853E-06
 Linear response to external field, progress :
  Direction:   2
       N       E                     dE             d eps       ncg     rms          rms(c)
RMM:   1    -0.502782303811E+01   -0.50278E+01   -0.29434E+01 25642   0.686E+00
RMM:   2    -0.822073528684E+01   -0.31929E+01    0.68667E-01 17589   0.202E+00    0.559E+00
RMM:   3    -0.807497856591E+01    0.14576E+00   -0.58051E-02 18917   0.190E+00    0.300E+00
RMM:   4    -0.825719163303E+01   -0.18221E+00    0.11010E-01 19898   0.186E+00    0.475E-01
RMM:   5    -0.833470255324E+01   -0.77511E-01    0.11259E-01 20697   0.556E-01    0.104E-01
RMM:   6    -0.836804241268E+01   -0.33340E-01   -0.14010E-01 21901   0.148E-01    0.635E-02
RMM:   7    -0.835114793760E+01    0.16894E-01    0.50123E-02 22534   0.556E-02    0.313E-02
RMM:   8    -0.835826209636E+01   -0.71142E-02    0.18561E-03 20079   0.290E-02    0.752E-03
RMM:   9    -0.835902391976E+01   -0.76182E-03   -0.98140E-04 22428   0.919E-03    0.388E-03
RMM:  10    -0.835931495952E+01   -0.29104E-03    0.12949E-04 20803   0.492E-03    0.183E-03
RMM:  11    -0.835940234966E+01   -0.87390E-04   -0.58714E-05 21946   0.172E-03    0.817E-04
RMM:  12    -0.835944513747E+01   -0.42788E-04    0.11663E-04 20518   0.113E-03    0.465E-04
RMM:  13    -0.835947844779E+01   -0.33310E-04   -0.65652E-06 21579   0.430E-04    0.154E-04
RMM:  14    -0.835948133819E+01   -0.28904E-05   -0.11560E-05 21858   0.189E-04    0.548E-05
RMM:  15    -0.835948112741E+01    0.21078E-06   -0.66840E-06 21380   0.895E-05    0.222E-05
RMM:  16    -0.835947988228E+01    0.12451E-05    0.14188E-06 18170   0.301E-05    0.133E-05
RMM:  17    -0.835947983189E+01    0.50388E-07    0.19681E-06 16076   0.260E-05    0.287E-06
 Linear response to external field, progress :
  Direction:   3
       N       E                     dE             d eps       ncg     rms          rms(c)
RMM:   1    -0.354338783234E+01   -0.35434E+01   -0.17268E+01 10515   0.650E+00
RMM:   2    -0.461523415801E+01   -0.10718E+01   -0.38185E-02  6937   0.180E+00    0.453E+00
RMM:   3    -0.580136858347E+01   -0.11861E+01   -0.49129E+01  8345   0.312E+00    0.320E+00
RMM:   4    -0.650607265762E+00    0.51508E+01   -0.47723E-01  7656   0.163E+00    0.110E+00
RMM:   5    -0.685850453995E+00   -0.35243E-01   -0.11600E+00  7988   0.690E-01    0.676E-01
RMM:   6    -0.732975976760E+00   -0.47126E-01   -0.21189E+00  7334   0.530E-01    0.204E-01
RMM:   7    -0.576498754123E+00    0.15648E+00   -0.55384E-01  7426   0.168E-01    0.121E-01
RMM:   8    -0.526875246548E+00    0.49624E-01   -0.78596E-02  7281   0.773E-02    0.439E-02
RMM:   9    -0.526244633752E+00    0.63061E-03   -0.78179E-02  6915   0.580E-02    0.253E-02
RMM:  10    -0.516012065523E+00    0.10233E-01    0.23985E-02  6932   0.304E-02    0.153E-02
RMM:  11    -0.519653888662E+00   -0.36418E-02   -0.77531E-03  6930   0.221E-02    0.756E-03
RMM:  12    -0.520196075136E+00   -0.54219E-03   -0.10646E-02  7271   0.120E-02    0.465E-03
RMM:  13    -0.519157688127E+00    0.10384E-02    0.13079E-03  7272   0.717E-03    0.356E-03
RMM:  14    -0.518946022484E+00    0.21167E-03    0.43127E-03  7183   0.528E-03    0.162E-03
RMM:  15    -0.519871232412E+00   -0.92521E-03   -0.44813E-03  6975   0.430E-03    0.958E-04
RMM:  16    -0.519486085702E+00    0.38515E-03   -0.66710E-04  7505   0.265E-03    0.516E-04
RMM:  17    -0.519391104218E+00    0.94981E-04    0.19548E-04  7677   0.146E-03    0.284E-04
RMM:  18    -0.519429958646E+00   -0.38854E-04   -0.27119E-04  7697   0.999E-04    0.196E-04
RMM:  19    -0.519407280879E+00    0.22678E-04   -0.10132E-04  7483   0.109E-03    0.946E-05
RMM:  20    -0.519405529146E+00    0.17517E-05   -0.97622E-05  7603   0.704E-04    0.549E-05
RMM:  21    -0.519407309311E+00   -0.17802E-05   -0.11183E-04  7974   0.248E-04    0.271E-05
RMM:  22    -0.519409097175E+00   -0.17879E-05   -0.12645E-04  7640   0.153E-04    0.117E-05
RMM:  23    -0.519408260247E+00    0.83693E-06   -0.11676E-04  7176   0.719E-05    0.401E-06
