unknown system                          
           1
     3.547392    0.000000    0.000000
    -1.773696    3.072132    0.000000
     0.000000    0.000000   50.000000
   Mo   Te
   2   4
Direct configuration=     1
   0.16666667  0.33333333  0.43020000
   0.83333333  0.66666667  0.56980000
   0.83333333  0.66666667  0.46630200
   0.83333333  0.66666667  0.39409800
   0.16666667  0.33333333  0.60590200
   0.16666667  0.33333333  0.53369800
