   9   9   0   0
  0.6054476E+02  0.3547392E-09  0.3547392E-09  0.5000000E-08  0.5000000E-15
  1.000000000000000E-004
  CAR 
 unknown system                          
     10.51989722    -63.65163754  301      0.69216887      1.00000000
    -63.652  0.0000E+00  0.0000E+00
    -63.404  0.0000E+00  0.0000E+00
    -63.157  0.0000E+00  0.0000E+00
    -62.910  0.0000E+00  0.0000E+00
    -62.663  0.0000E+00  0.0000E+00
    -62.415  0.0000E+00  0.0000E+00
    -62.168  0.0000E+00  0.0000E+00
    -61.921  0.0000E+00  0.0000E+00
    -61.674  0.0000E+00  0.0000E+00
    -61.426  0.0000E+00  0.0000E+00
    -61.179  0.0000E+00  0.0000E+00
    -60.932  0.0000E+00  0.0000E+00
    -60.685  0.0000E+00  0.0000E+00
    -60.438  0.0000E+00  0.0000E+00
    -60.190  0.0000E+00  0.6000E+01
    -59.943  0.0000E+00  0.6000E+01
    -59.696  0.0000E+00  0.6000E+01
    -59.449  0.0000E+00  0.6000E+01
    -59.201  0.0000E+00  0.6000E+01
    -58.954  0.0000E+00  0.6000E+01
    -58.707  0.0000E+00  0.6000E+01
    -58.460  0.0000E+00  0.6000E+01
    -58.212  0.0000E+00  0.6000E+01
    -57.965  0.0000E+00  0.6000E+01
    -57.718  0.0000E+00  0.6000E+01
    -57.471  0.0000E+00  0.6000E+01
    -57.223  0.0000E+00  0.6000E+01
    -56.976  0.0000E+00  0.6000E+01
    -56.729  0.0000E+00  0.6000E+01
    -56.482  0.0000E+00  0.6000E+01
    -56.234  0.0000E+00  0.6000E+01
    -55.987  0.0000E+00  0.6000E+01
    -55.740  0.0000E+00  0.6000E+01
    -55.493  0.0000E+00  0.6000E+01
    -55.246  0.0000E+00  0.6000E+01
    -54.998  0.0000E+00  0.6000E+01
    -54.751  0.0000E+00  0.6000E+01
    -54.504  0.0000E+00  0.6000E+01
    -54.257  0.0000E+00  0.6000E+01
    -54.009  0.0000E+00  0.6000E+01
    -53.762  0.0000E+00  0.6000E+01
    -53.515  0.0000E+00  0.6000E+01
    -53.268  0.0000E+00  0.6000E+01
    -53.020  0.0000E+00  0.6000E+01
    -52.773  0.0000E+00  0.6000E+01
    -52.526  0.0000E+00  0.6000E+01
    -52.279  0.0000E+00  0.6000E+01
    -52.031  0.0000E+00  0.6000E+01
    -51.784  0.0000E+00  0.6000E+01
    -51.537  0.0000E+00  0.6000E+01
    -51.290  0.0000E+00  0.6000E+01
    -51.042  0.0000E+00  0.6000E+01
    -50.795  0.0000E+00  0.6000E+01
    -50.548  0.0000E+00  0.6000E+01
    -50.301  0.0000E+00  0.6000E+01
    -50.054  0.0000E+00  0.6000E+01
    -49.806  0.0000E+00  0.6000E+01
    -49.559  0.0000E+00  0.6000E+01
    -49.312  0.0000E+00  0.6000E+01
    -49.065  0.0000E+00  0.6000E+01
    -48.817  0.0000E+00  0.6000E+01
    -48.570  0.0000E+00  0.6000E+01
    -48.323  0.0000E+00  0.6000E+01
    -48.076  0.0000E+00  0.6000E+01
    -47.828  0.0000E+00  0.6000E+01
    -47.581  0.0000E+00  0.6000E+01
    -47.334  0.0000E+00  0.6000E+01
    -47.087  0.0000E+00  0.6000E+01
    -46.839  0.0000E+00  0.6000E+01
    -46.592  0.0000E+00  0.6000E+01
    -46.345  0.0000E+00  0.6000E+01
    -46.098  0.0000E+00  0.6000E+01
    -45.850  0.0000E+00  0.6000E+01
    -45.603  0.0000E+00  0.6000E+01
    -45.356  0.0000E+00  0.6000E+01
    -45.109  0.0000E+00  0.6000E+01
    -44.862  0.0000E+00  0.6000E+01
    -44.614  0.0000E+00  0.6000E+01
    -44.367  0.0000E+00  0.6000E+01
    -44.120  0.0000E+00  0.6000E+01
    -43.873  0.0000E+00  0.6000E+01
    -43.625  0.0000E+00  0.6000E+01
    -43.378  0.0000E+00  0.6000E+01
    -43.131  0.0000E+00  0.6000E+01
    -42.884  0.0000E+00  0.6000E+01
    -42.636  0.0000E+00  0.6000E+01
    -42.389  0.0000E+00  0.6000E+01
    -42.142  0.0000E+00  0.6000E+01
    -41.895  0.0000E+00  0.6000E+01
    -41.647  0.0000E+00  0.6000E+01
    -41.400  0.0000E+00  0.6000E+01
    -41.153  0.0000E+00  0.6000E+01
    -40.906  0.0000E+00  0.6000E+01
    -40.658  0.0000E+00  0.6000E+01
    -40.411  0.0000E+00  0.6000E+01
    -40.164  0.0000E+00  0.6000E+01
    -39.917  0.0000E+00  0.6000E+01
    -39.670  0.0000E+00  0.6000E+01
    -39.422  0.0000E+00  0.6000E+01
    -39.175  0.0000E+00  0.6000E+01
    -38.928  0.0000E+00  0.6000E+01
    -38.681  0.0000E+00  0.6000E+01
    -38.433  0.0000E+00  0.6000E+01
    -38.186  0.0000E+00  0.6000E+01
    -37.939  0.0000E+00  0.6000E+01
    -37.692  0.0000E+00  0.6000E+01
    -37.444  0.0000E+00  0.6000E+01
    -37.197  0.0000E+00  0.6000E+01
    -36.950  0.0000E+00  0.6000E+01
    -36.703  0.0000E+00  0.6000E+01
    -36.455  0.0000E+00  0.6000E+01
    -36.208  0.0000E+00  0.6000E+01
    -35.961  0.0000E+00  0.6000E+01
    -35.714  0.0000E+00  0.6000E+01
    -35.466  0.0000E+00  0.6000E+01
    -35.219  0.0000E+00  0.6000E+01
    -34.972  0.0000E+00  0.6000E+01
    -34.725  0.0000E+00  0.6000E+01
    -34.478  0.0000E+00  0.6000E+01
    -34.230  0.0000E+00  0.2400E+02
    -33.983  0.0000E+00  0.2400E+02
    -33.736  0.0000E+00  0.2400E+02
    -33.489  0.0000E+00  0.2400E+02
    -33.241  0.0000E+00  0.2400E+02
    -32.994  0.0000E+00  0.2400E+02
    -32.747  0.0000E+00  0.2400E+02
    -32.500  0.0000E+00  0.2400E+02
    -32.252  0.0000E+00  0.2400E+02
    -32.005  0.0000E+00  0.2400E+02
    -31.758  0.0000E+00  0.2400E+02
    -31.511  0.0000E+00  0.2400E+02
    -31.263  0.0000E+00  0.2400E+02
    -31.016  0.0000E+00  0.2400E+02
    -30.769  0.0000E+00  0.2400E+02
    -30.522  0.0000E+00  0.2400E+02
    -30.274  0.0000E+00  0.2400E+02
    -30.027  0.0000E+00  0.2400E+02
    -29.780  0.0000E+00  0.2400E+02
    -29.533  0.0000E+00  0.2400E+02
    -29.285  0.0000E+00  0.2400E+02
    -29.038  0.0000E+00  0.2400E+02
    -28.791  0.0000E+00  0.2400E+02
    -28.544  0.0000E+00  0.2400E+02
    -28.297  0.0000E+00  0.2400E+02
    -28.049  0.0000E+00  0.2400E+02
    -27.802  0.0000E+00  0.2400E+02
    -27.555  0.0000E+00  0.2400E+02
    -27.308  0.0000E+00  0.2400E+02
    -27.060  0.0000E+00  0.2400E+02
    -26.813  0.0000E+00  0.2400E+02
    -26.566  0.0000E+00  0.2400E+02
    -26.319  0.0000E+00  0.2400E+02
    -26.071  0.0000E+00  0.2400E+02
    -25.824  0.0000E+00  0.2400E+02
    -25.577  0.0000E+00  0.2400E+02
    -25.330  0.0000E+00  0.2400E+02
    -25.082  0.0000E+00  0.2400E+02
    -24.835  0.0000E+00  0.2400E+02
    -24.588  0.0000E+00  0.2400E+02
    -24.341  0.0000E+00  0.2400E+02
    -24.093  0.0000E+00  0.2400E+02
    -23.846  0.0000E+00  0.2400E+02
    -23.599  0.0000E+00  0.2400E+02
    -23.352  0.0000E+00  0.2400E+02
    -23.105  0.0000E+00  0.2400E+02
    -22.857  0.0000E+00  0.2400E+02
    -22.610  0.0000E+00  0.2400E+02
    -22.363  0.0000E+00  0.2400E+02
    -22.116  0.0000E+00  0.2400E+02
    -21.868  0.0000E+00  0.2400E+02
    -21.621  0.0000E+00  0.2400E+02
    -21.374  0.0000E+00  0.2400E+02
    -21.127  0.0000E+00  0.2400E+02
    -20.879  0.0000E+00  0.2400E+02
    -20.632  0.0000E+00  0.2400E+02
    -20.385  0.0000E+00  0.2400E+02
    -20.138  0.0000E+00  0.2400E+02
    -19.890  0.0000E+00  0.2400E+02
    -19.643  0.0000E+00  0.2400E+02
    -19.396  0.0000E+00  0.2400E+02
    -19.149  0.0000E+00  0.2400E+02
    -18.901  0.0000E+00  0.2400E+02
    -18.654  0.0000E+00  0.2400E+02
    -18.407  0.0000E+00  0.2400E+02
    -18.160  0.0000E+00  0.2400E+02
    -17.913  0.0000E+00  0.2400E+02
    -17.665  0.0000E+00  0.2400E+02
    -17.418  0.0000E+00  0.2400E+02
    -17.171  0.0000E+00  0.2400E+02
    -16.924  0.0000E+00  0.2400E+02
    -16.676  0.0000E+00  0.2400E+02
    -16.429  0.0000E+00  0.2400E+02
    -16.182  0.0000E+00  0.2400E+02
    -15.935  0.0000E+00  0.2400E+02
    -15.687  0.0000E+00  0.2400E+02
    -15.440  0.0000E+00  0.2400E+02
    -15.193  0.0000E+00  0.2400E+02
    -14.946  0.0000E+00  0.2400E+02
    -14.698  0.0000E+00  0.2400E+02
    -14.451  0.0000E+00  0.2400E+02
    -14.204  0.0000E+00  0.2400E+02
    -13.957  0.0000E+00  0.2400E+02
    -13.709  0.0000E+00  0.2400E+02
    -13.462  0.0000E+00  0.2400E+02
    -13.215  0.0000E+00  0.2400E+02
    -12.968  0.0000E+00  0.2400E+02
    -12.721  0.0000E+00  0.2400E+02
    -12.473  0.0000E+00  0.2400E+02
    -12.226  0.5178E+00  0.2404E+02
    -11.979  0.1639E+01  0.2433E+02
    -11.732  0.1736E+01  0.2475E+02
    -11.484  0.1846E+01  0.2519E+02
    -11.237  0.2755E+01  0.2579E+02
    -10.990  0.4658E+01  0.2672E+02
    -10.743  0.5276E+01  0.2794E+02
    -10.495  0.6387E+01  0.2936E+02
    -10.248  0.9786E+01  0.3132E+02
    -10.001  0.1045E+02  0.3371E+02
     -9.754  0.5534E+01  0.3577E+02
     -9.506  0.0000E+00  0.3600E+02
     -9.259  0.0000E+00  0.3600E+02
     -9.012  0.0000E+00  0.3600E+02
     -8.765  0.0000E+00  0.3600E+02
     -8.517  0.0000E+00  0.3600E+02
     -8.270  0.0000E+00  0.3600E+02
     -8.023  0.0000E+00  0.3600E+02
     -7.776  0.0000E+00  0.3600E+02
     -7.529  0.0000E+00  0.3600E+02
     -7.281  0.0000E+00  0.3600E+02
     -7.034  0.0000E+00  0.3600E+02
     -6.787  0.0000E+00  0.3600E+02
     -6.540  0.0000E+00  0.3600E+02
     -6.292  0.0000E+00  0.3600E+02
     -6.045  0.0000E+00  0.3600E+02
     -5.798  0.0000E+00  0.3600E+02
     -5.551  0.0000E+00  0.3600E+02
     -5.303  0.0000E+00  0.3600E+02
     -5.056  0.8249E+00  0.3602E+02
     -4.809  0.3307E+01  0.3653E+02
     -4.562  0.4136E+01  0.3740E+02
     -4.314  0.6082E+01  0.3862E+02
     -4.067  0.1246E+02  0.4101E+02
     -3.820  0.7041E+01  0.4343E+02
     -3.573  0.4589E+01  0.4459E+02
     -3.325  0.2456E+01  0.4554E+02
     -3.078  0.7796E+01  0.4692E+02
     -2.831  0.4541E+01  0.4932E+02
     -2.584  0.6050E+01  0.5160E+02
     -2.337  0.6568E+01  0.5319E+02
     -2.089  0.8770E+01  0.5534E+02
     -1.842  0.8767E+01  0.5759E+02
     -1.595  0.5780E+01  0.5926E+02
     -1.348  0.5079E+01  0.6059E+02
     -1.100  0.1353E+02  0.6382E+02
     -0.853  0.1249E+02  0.6702E+02
     -0.606  0.1056E+02  0.6949E+02
     -0.359  0.3676E+01  0.7159E+02
     -0.111  0.9119E+01  0.7379E+02
      0.136  0.9387E+01  0.7634E+02
      0.383  0.2174E+01  0.7769E+02
      0.630  0.0000E+00  0.7800E+02
      0.878  0.0000E+00  0.7800E+02
      1.125  0.0000E+00  0.7800E+02
      1.372  0.0000E+00  0.7800E+02
      1.619  0.6884E+01  0.7870E+02
      1.867  0.1259E+02  0.8124E+02
      2.114  0.1770E+02  0.8434E+02
      2.361  0.9126E+01  0.8767E+02
      2.608  0.6948E+01  0.8954E+02
      2.856  0.9133E+01  0.9201E+02
      3.103  0.5342E+01  0.9374E+02
      3.350  0.3496E+01  0.9489E+02
      3.597  0.1242E+02  0.9598E+02
      3.844  0.5772E+01  0.9826E+02
      4.092  0.4251E+01  0.1002E+03
      4.339  0.3099E+01  0.1013E+03
      4.586  0.5889E+00  0.1021E+03
      4.833  0.2461E+01  0.1025E+03
      5.081  0.4216E+01  0.1032E+03
      5.328  0.3854E+01  0.1041E+03
      5.575  0.4635E+01  0.1052E+03
      5.822  0.4343E+01  0.1062E+03
      6.070  0.4433E+01  0.1074E+03
      6.317  0.4751E+01  0.1086E+03
      6.564  0.5043E+01  0.1099E+03
      6.811  0.3912E+01  0.1111E+03
      7.059  0.1588E+01  0.1119E+03
      7.306  0.0000E+00  0.1120E+03
      7.553  0.0000E+00  0.1120E+03
      7.800  0.0000E+00  0.1120E+03
      8.048  0.0000E+00  0.1120E+03
      8.295  0.0000E+00  0.1120E+03
      8.542  0.0000E+00  0.1120E+03
      8.789  0.0000E+00  0.1120E+03
      9.036  0.0000E+00  0.1120E+03
      9.284  0.0000E+00  0.1120E+03
      9.531  0.0000E+00  0.1120E+03
      9.778  0.0000E+00  0.1120E+03
     10.025  0.0000E+00  0.1120E+03
     10.273  0.0000E+00  0.1120E+03
     10.520  0.0000E+00  0.1120E+03
