       N       E                     dE             d eps       ncg     rms          rms(c)
DAV:   1     0.452812533698E+03    0.45281E+03   -0.32289E+04  5488   0.824E+02
DAV:   2    -0.203422963071E+02   -0.47315E+03   -0.46561E+03  6160   0.278E+02
DAV:   3    -0.615933434798E+02   -0.41251E+02   -0.40920E+02  6216   0.854E+01
DAV:   4    -0.633643673229E+02   -0.17710E+01   -0.17665E+01  6356   0.210E+01
DAV:   5    -0.634079237779E+02   -0.43556E-01   -0.43541E-01  6020   0.309E+00    0.152E+01
DAV:   6    -0.602838248404E+02    0.31241E+01   -0.10365E+02  7308   0.333E+01    0.111E+01
DAV:   7    -0.567358576125E+02    0.35480E+01   -0.37153E+01  7028   0.204E+01    0.468E+00
DAV:   8    -0.564567852928E+02    0.27907E+00   -0.38312E+00  6496   0.754E+00    0.129E+00
DAV:   9    -0.564167918039E+02    0.39993E-01   -0.28545E-01  6104   0.233E+00    0.424E-01
DAV:  10    -0.564141370425E+02    0.26548E-02   -0.39956E-02  6916   0.808E-01    0.185E-01
DAV:  11    -0.564135265362E+02    0.61051E-03   -0.78685E-03  6132   0.386E-01    0.773E-02
DAV:  12    -0.564133689232E+02    0.15761E-03   -0.11431E-03  5908   0.151E-01    0.313E-02
DAV:  13    -0.564133079034E+02    0.61020E-04   -0.24057E-04  5712   0.491E-02    0.162E-02
DAV:  14    -0.564132954899E+02    0.12414E-04   -0.49014E-05  5656   0.251E-02    0.106E-02
DAV:  15    -0.564133345841E+02   -0.39094E-04   -0.36276E-05  5628   0.160E-02    0.584E-03
DAV:  16    -0.564134017809E+02   -0.67197E-04   -0.18203E-05  4872   0.114E-02    0.343E-03
DAV:  17    -0.564134637509E+02   -0.61970E-04   -0.65786E-06  5152   0.609E-03    0.173E-03
DAV:  18    -0.564135040208E+02   -0.40270E-04   -0.32270E-06  5152   0.379E-03    0.110E-03
DAV:  19    -0.564135306424E+02   -0.26622E-04   -0.10043E-06  5348   0.219E-03    0.625E-04
DAV:  20    -0.564135474314E+02   -0.16789E-04   -0.26730E-07  5404   0.116E-03    0.311E-04
DAV:  21    -0.564135517051E+02   -0.42737E-05   -0.96343E-08  5152   0.546E-04    0.164E-04
DAV:  22    -0.564135555223E+02   -0.38172E-05   -0.67524E-08  4900   0.495E-04    0.753E-05
DAV:  23    -0.564135564467E+02   -0.92440E-06   -0.10612E-08  4676   0.221E-04    0.395E-05
DAV:  24    -0.564135571463E+02   -0.69960E-06   -0.10169E-08  4200   0.211E-04    0.249E-05
DAV:  25    -0.564135572879E+02   -0.14163E-06   -0.79127E-10  4620   0.128E-04    0.187E-05
DAV:  26    -0.564135573971E+02   -0.10912E-06   -0.44151E-10  4004   0.107E-04    0.105E-05
DAV:  27    -0.564135574289E+02   -0.31853E-07   -0.88906E-11  4676   0.747E-05    0.660E-06
DAV:  28    -0.564135574473E+02   -0.18339E-07    0.37789E-11  4228   0.473E-05    0.572E-06
DAV:  29    -0.564135574549E+02   -0.76143E-08    0.37545E-11  3976   0.345E-05
   1 F= -.59290948E+02 E0= -.59290948E+02  d E =0.000000E+00
 Linear response reoptimize wavefunctions
DAV:   1    -0.564135574597E+02    0.28774E+01    0.92495E-12  4004   0.314E-05
DAV:   2    -0.564135574597E+02    0.14552E-10    0.46375E-11  4340   0.145E-05
 Linear response G [H, r] |phi>, progress :
  Direction:   1
       N       E                     dE             d eps       ncg     rms
RMM:   1    -0.373782446253E+03   -0.37378E+03   -0.63100E+03  4501   0.816E+02
RMM:   2    -0.355115878166E+03    0.18667E+02   -0.13948E+02  6180   0.962E+01
RMM:   3    -0.389927717247E+03   -0.34812E+02   -0.21715E+02  7832   0.303E+01
RMM:   4    -0.393130703947E+03   -0.32030E+01   -0.96874E+00  8391   0.799E+00
RMM:   5    -0.393396339531E+03   -0.26564E+00   -0.13128E+00  9107   0.218E+00
RMM:   6    -0.393407625391E+03   -0.11286E-01   -0.10764E-01  8923   0.729E-01
RMM:   7    -0.393411182945E+03   -0.35576E-02   -0.30455E-02  9561   0.255E-01
RMM:   8    -0.393411468997E+03   -0.28605E-03   -0.34942E-03  9327   0.920E-02
RMM:   9    -0.393411534880E+03   -0.65884E-04   -0.78288E-04  9427   0.363E-02
RMM:  10    -0.393411558693E+03   -0.23813E-04   -0.31590E-04  9425   0.142E-02
RMM:  11    -0.393411547437E+03    0.11256E-04   -0.97715E-05  9997   0.640E-03
RMM:  12    -0.393411540330E+03    0.71069E-05   -0.57996E-06 10189   0.335E-03
RMM:  13    -0.393411538024E+03    0.23056E-05    0.21209E-05 10427   0.227E-03
RMM:  14    -0.393411540397E+03   -0.23728E-05   -0.16763E-06 10382   0.186E-03
RMM:  15    -0.393411541891E+03   -0.14942E-05   -0.16439E-05 10370   0.173E-03
RMM:  16    -0.393411536759E+03    0.51321E-05    0.34937E-05 10187   0.167E-03
RMM:  17    -0.393411541449E+03   -0.46895E-05   -0.11964E-05 10152   0.166E-03
 Linear response G [H, r] |phi>, progress :
  Direction:   2
       N       E                     dE             d eps       ncg     rms
RMM:   1    -0.362183722878E+03   -0.36218E+03   -0.64734E+03  4466   0.814E+02
RMM:   2    -0.373615849878E+03   -0.11432E+02   -0.13775E+02  6118   0.966E+01
RMM:   3    -0.414613081425E+03   -0.40997E+02   -0.23805E+02  7871   0.306E+01
RMM:   4    -0.418189470298E+03   -0.35764E+01   -0.11331E+01  8453   0.810E+00
RMM:   5    -0.418434248398E+03   -0.24478E+00   -0.10725E+00  8977   0.222E+00
RMM:   6    -0.418451565201E+03   -0.17317E-01   -0.13760E-01  8766   0.731E-01
RMM:   7    -0.418451781054E+03   -0.21585E-03   -0.32589E-02  9400   0.253E-01
RMM:   8    -0.418451535025E+03    0.24603E-03   -0.39092E-03  9141   0.881E-02
RMM:   9    -0.418451654470E+03   -0.11945E-03   -0.29244E-03  9325   0.339E-02
RMM:  10    -0.418451508810E+03    0.14566E-03   -0.93480E-04  9275   0.129E-02
RMM:  11    -0.418451479325E+03    0.29485E-04   -0.57816E-04  9920   0.566E-03
RMM:  12    -0.418451444744E+03    0.34581E-04   -0.21858E-04  9981   0.288E-03
RMM:  13    -0.418451439327E+03    0.54163E-05   -0.16272E-04 10308   0.196E-03
RMM:  14    -0.418451428471E+03    0.10856E-04   -0.53860E-05 10217   0.162E-03
RMM:  15    -0.418451427314E+03    0.11576E-05   -0.42202E-05 10182   0.151E-03
RMM:  16    -0.418451437471E+03   -0.10158E-04   -0.14381E-04  9968   0.148E-03
 Linear response G [H, r] |phi>, progress :
  Direction:   3
       N       E                     dE             d eps       ncg     rms
RMM:   1    -0.385890457502E+03   -0.38589E+03   -0.68812E+03  4842   0.805E+02
RMM:   2    -0.376191769474E+03    0.96987E+01   -0.19211E+02  6311   0.927E+01
RMM:   3    -0.408509057676E+03   -0.32317E+02   -0.18062E+02  7757   0.285E+01
RMM:   4    -0.411047233602E+03   -0.25382E+01   -0.10444E+01  8135   0.783E+00
RMM:   5    -0.411231863954E+03   -0.18463E+00   -0.13882E+00  8830   0.225E+00
RMM:   6    -0.411244237404E+03   -0.12373E-01   -0.14894E-01  8933   0.723E-01
RMM:   7    -0.411248062319E+03   -0.38249E-02   -0.36215E-02  9068   0.252E-01
RMM:   8    -0.411248362557E+03   -0.30024E-03   -0.34231E-03  9298   0.911E-02
RMM:   9    -0.411248510784E+03   -0.14823E-03   -0.67097E-04  9257   0.357E-02
RMM:  10    -0.411248545750E+03   -0.34966E-04    0.81922E-05  9514   0.138E-02
RMM:  11    -0.411248563680E+03   -0.17930E-04    0.28562E-05  9891   0.621E-03
RMM:  12    -0.411248566243E+03   -0.25623E-05    0.39698E-05 10259   0.316E-03
RMM:  13    -0.411248569828E+03   -0.35853E-05    0.72384E-06 10467   0.214E-03
RMM:  14    -0.411248570892E+03   -0.10639E-05   -0.24900E-06 10374   0.178E-03
RMM:  15    -0.411248571402E+03   -0.50997E-06   -0.75662E-06 10307   0.168E-03
RMM:  16    -0.411248571866E+03   -0.46379E-06   -0.12240E-05 10137   0.166E-03
 Linear response to external field (no local field effect), progress :
  Direction:   1
       N       E                     dE             d eps       ncg     rms          rms(c)
RMM:   1    -0.709456980663E+01   -0.70946E+01   -0.41384E+01  9707   0.103E+01
RMM:   2    -0.120710760244E+02   -0.49765E+01    0.62689E-01  6541   0.303E+00
RMM:   3    -0.122418504734E+02   -0.17077E+00   -0.16110E-01  8223   0.865E-01
RMM:   4    -0.122468153917E+02   -0.49649E-02   -0.98120E-03  8153   0.206E-01
RMM:   5    -0.122471208173E+02   -0.30543E-03   -0.11741E-03  8693   0.686E-02
RMM:   6    -0.122471599221E+02   -0.39105E-04   -0.12249E-04  8749   0.233E-02
RMM:   7    -0.122471650687E+02   -0.51467E-05   -0.22775E-05  8210   0.857E-03
RMM:   8    -0.122471658282E+02   -0.75948E-06   -0.24472E-06  7695   0.304E-03
RMM:   9    -0.122471659406E+02   -0.11239E-06   -0.51594E-07  7428   0.113E-03
RMM:  10    -0.122471659519E+02   -0.11329E-07   -0.61669E-08  7616   0.434E-04
RMM:  11    -0.122471659558E+02   -0.38880E-08   -0.24455E-08  7284   0.185E-04
 Linear response to external field (no local field effect), progress :
  Direction:   2
       N       E                     dE             d eps       ncg     rms          rms(c)
RMM:   1    -0.793695308829E+01   -0.79370E+01   -0.46329E+01  9646   0.105E+01
RMM:   2    -0.127283816842E+02   -0.47914E+01    0.51082E-01  6543   0.312E+00
RMM:   3    -0.128893504425E+02   -0.16097E+00   -0.16647E-01  8080   0.901E-01
RMM:   4    -0.128945703079E+02   -0.52199E-02   -0.95362E-03  8083   0.223E-01
RMM:   5    -0.128949136541E+02   -0.34335E-03   -0.14123E-03  8599   0.767E-02
RMM:   6    -0.128949697853E+02   -0.56131E-04   -0.14378E-04  8655   0.253E-02
RMM:   7    -0.128949765612E+02   -0.67759E-05   -0.22566E-05  8176   0.926E-03
RMM:   8    -0.128949775917E+02   -0.10305E-05   -0.24448E-06  7678   0.331E-03
RMM:   9    -0.128949777677E+02   -0.17609E-06   -0.31169E-07  7424   0.123E-03
RMM:  10    -0.128949778002E+02   -0.32466E-07   -0.19621E-08  7446   0.471E-04
RMM:  11    -0.128949778065E+02   -0.62932E-08   -0.25087E-09  7242   0.198E-04
 Linear response to external field (no local field effect), progress :
  Direction:   3
       N       E                     dE             d eps       ncg     rms          rms(c)
RMM:   1    -0.554559821077E+01   -0.55456E+01   -0.27652E+01  9662   0.983E+00
RMM:   2    -0.737152379116E+01   -0.18259E+01   -0.35487E-01  6457   0.274E+00
RMM:   3    -0.742027329093E+01   -0.48749E-01   -0.10227E-01  7930   0.781E-01
RMM:   4    -0.742340146864E+01   -0.31282E-02   -0.68680E-03  8215   0.210E-01
RMM:   5    -0.742359920707E+01   -0.19774E-03   -0.76470E-04  8287   0.699E-02
RMM:   6    -0.742362786097E+01   -0.28654E-04   -0.10329E-04  8654   0.246E-02
RMM:   7    -0.742363193702E+01   -0.40760E-05   -0.15216E-05  8119   0.880E-03
RMM:   8    -0.742363253131E+01   -0.59429E-06   -0.17840E-06  7427   0.312E-03
RMM:   9    -0.742363261717E+01   -0.85864E-07   -0.14125E-07  7194   0.115E-03
RMM:  10    -0.742363264681E+01   -0.29634E-07   -0.10240E-08  7366   0.432E-04
RMM:  11    -0.742363264882E+01   -0.20145E-08    0.27744E-08  7008   0.184E-04
 Linear response to external field, progress :
  Direction:   1
       N       E                     dE             d eps       ncg     rms          rms(c)
RMM:   1    -0.755230634074E+01   -0.75523E+01   -0.44222E+01 43181   0.103E+01
RMM:   2    -0.124146485506E+02   -0.48623E+01    0.44086E-01 28973   0.302E+00    0.683E+00
RMM:   3    -0.121756364478E+02    0.23901E+00   -0.32892E-01 32119   0.299E+00    0.368E+00
RMM:   4    -0.124842735640E+02   -0.30864E+00   -0.36985E-01 32117   0.291E+00    0.584E-01
RMM:   5    -0.125681129688E+02   -0.83839E-01   -0.58090E-02 33670   0.875E-01    0.119E-01
RMM:   6    -0.125811381185E+02   -0.13025E-01   -0.27951E-03 38301   0.218E-01    0.593E-02
RMM:   7    -0.125834125538E+02   -0.22744E-02    0.75454E-04 36967   0.798E-02    0.370E-02
RMM:   8    -0.125856577941E+02   -0.22452E-02   -0.62444E-04 35216   0.462E-02    0.112E-02
RMM:   9    -0.125858123309E+02   -0.15454E-03   -0.21097E-04 36258   0.179E-02    0.482E-03
RMM:  10    -0.125863187860E+02   -0.50646E-03   -0.17220E-05 35112   0.904E-03    0.169E-03
RMM:  11    -0.125863931953E+02   -0.74409E-04    0.17452E-06 37341   0.311E-03    0.727E-04
RMM:  12    -0.125864416951E+02   -0.48500E-04   -0.17048E-06 38506   0.117E-03    0.526E-04
RMM:  13    -0.125864838102E+02   -0.42115E-04    0.60447E-07 34918   0.627E-04    0.187E-04
RMM:  14    -0.125864837083E+02    0.10188E-06   -0.26376E-06 35902   0.359E-04    0.616E-05
RMM:  15    -0.125864837463E+02   -0.37947E-07   -0.55931E-09 37872   0.144E-04    0.290E-05
RMM:  16    -0.125864842192E+02   -0.47290E-06    0.59342E-07 28671   0.718E-05    0.130E-05
RMM:  17    -0.125864841498E+02    0.69397E-07    0.17372E-07 23656   0.614E-05    0.493E-06
 Linear response to external field, progress :
  Direction:   2
       N       E                     dE             d eps       ncg     rms          rms(c)
RMM:   1    -0.757130305586E+01   -0.75713E+01   -0.44412E+01 23878   0.103E+01
RMM:   2    -0.124094813804E+02   -0.48382E+01    0.48438E-01 16229   0.303E+00    0.682E+00
RMM:   3    -0.121736068984E+02    0.23587E+00   -0.30455E-01 17664   0.299E+00    0.368E+00
RMM:   4    -0.124402186457E+02   -0.26661E+00    0.70800E-02 17682   0.291E+00    0.581E-01
RMM:   5    -0.125680583483E+02   -0.12784E+00   -0.54397E-02 18700   0.871E-01    0.128E-01
RMM:   6    -0.125802674286E+02   -0.12209E-01   -0.76654E-03 21163   0.233E-01    0.753E-02
RMM:   7    -0.125827202271E+02   -0.24528E-02    0.79098E-04 21272   0.869E-02    0.393E-02
RMM:   8    -0.125854359844E+02   -0.27158E-02   -0.10903E-04 19276   0.511E-02    0.115E-02
RMM:   9    -0.125857097224E+02   -0.27374E-03   -0.16343E-04 21154   0.174E-02    0.649E-03
RMM:  10    -0.125859894020E+02   -0.27968E-03   -0.32325E-05 18901   0.976E-03    0.329E-03
RMM:  11    -0.125863563615E+02   -0.36696E-03   -0.17429E-05 19806   0.445E-03    0.109E-03
RMM:  12    -0.125863954612E+02   -0.39100E-04    0.41819E-06 19456   0.252E-03    0.739E-04
RMM:  13    -0.125864438512E+02   -0.48390E-04    0.91102E-06 19090   0.102E-03    0.205E-04
RMM:  14    -0.125864493949E+02   -0.55437E-05   -0.48740E-07 20145   0.423E-04    0.584E-05
RMM:  15    -0.125864508150E+02   -0.14200E-05   -0.84490E-08 21322   0.169E-04    0.269E-05
RMM:  16    -0.125864508648E+02   -0.49832E-07    0.26140E-07 16360   0.710E-05    0.217E-05
RMM:  17    -0.125864505431E+02    0.32170E-06    0.76344E-08 14130   0.691E-05    0.553E-06
 Linear response to external field, progress :
  Direction:   3
       N       E                     dE             d eps       ncg     rms          rms(c)
RMM:   1    -0.554559821077E+01   -0.55456E+01   -0.27652E+01  9662   0.983E+00
RMM:   2    -0.737152379116E+01   -0.18259E+01   -0.35487E-01  6457   0.274E+00    0.550E+00
RMM:   3    -0.366592142235E+01    0.37056E+01   -0.29690E+01  7233   0.574E+00    0.323E+00
RMM:   4    -0.228700191250E+01    0.13789E+01   -0.12128E+01  6632   0.256E+00    0.132E+00
RMM:   5    -0.196095213876E+01    0.32605E+00   -0.93658E+00  6999   0.120E+00    0.850E-01
RMM:   6    -0.227711403579E+01   -0.31616E+00   -0.13379E+01  7238   0.954E-01    0.277E-01
RMM:   7    -0.149388291389E+01    0.78323E+00   -0.55040E+00  7920   0.324E-01    0.202E-01
RMM:   8    -0.109406290804E+01    0.39982E+00   -0.15629E+00  7312   0.193E-01    0.951E-02
RMM:   9    -0.102048389756E+01    0.73579E-01   -0.83757E-01  7610   0.105E-01    0.427E-02
RMM:  10    -0.988310825379E+00    0.32173E-01   -0.52211E-01  6957   0.792E-02    0.224E-02
RMM:  11    -0.912978259419E+00    0.75333E-01    0.23315E-01  6940   0.397E-02    0.150E-02
RMM:  12    -0.923199030210E+00   -0.10221E-01    0.13711E-01  7035   0.325E-02    0.774E-03
RMM:  13    -0.952822762779E+00   -0.29624E-01   -0.15553E-01  7047   0.180E-02    0.488E-03
RMM:  14    -0.939470826361E+00    0.13352E-01   -0.19758E-02  6899   0.105E-02    0.305E-03
RMM:  15    -0.933549416799E+00    0.59214E-02    0.40478E-02  7217   0.676E-03    0.202E-03
RMM:  16    -0.939848082717E+00   -0.62987E-02   -0.22038E-02  6934   0.654E-03    0.903E-04
RMM:  17    -0.938257074330E+00    0.15910E-02   -0.60234E-03  7595   0.272E-03    0.709E-04
RMM:  18    -0.938974885812E+00   -0.71781E-03   -0.13228E-02  7124   0.184E-03    0.449E-04
RMM:  19    -0.937456117559E+00    0.15188E-02    0.17967E-03  7067   0.216E-03    0.235E-04
RMM:  20    -0.937842296071E+00   -0.38618E-03   -0.21758E-03  7283   0.122E-03    0.163E-04
RMM:  21    -0.937700661733E+00    0.14163E-03   -0.81475E-04  7274   0.116E-03    0.939E-05
RMM:  22    -0.937656731352E+00    0.43930E-04   -0.38241E-04  7525   0.400E-04    0.624E-05
RMM:  23    -0.937601377325E+00    0.55354E-04    0.16527E-04  6908   0.442E-04    0.345E-05
RMM:  24    -0.937592406743E+00    0.89706E-05    0.25991E-04  6602   0.206E-04    0.159E-05
RMM:  25    -0.937556129984E+00    0.36277E-04    0.62678E-04  6386   0.922E-05    0.733E-06
