 vasp.5.4.1 24Jun15 (build Apr 13 2016 13:07:19) complex                        
  
 executed on           IFC91_ompi date 2019.09.14  01:00:43
 running on   28 total cores
 distrk:  each k-point on   28 cores,    1 groups
 distr:  one band on NCORES_PER_BAND=   1 cores,   28 groups


--------------------------------------------------------------------------------------------------------


 INCAR:
 POTCAR:    PAW_PBE Mo_sv_GW 05Dec2013            
 POTCAR:    PAW_PBE Te_GW 22Mar2012               

 ----------------------------------------------------------------------------- 
|                                                                             |
|           W    W    AA    RRRRR   N    N  II  N    N   GGGG   !!!           |
|           W    W   A  A   R    R  NN   N  II  NN   N  G    G  !!!           |
|           W    W  A    A  R    R  N N  N  II  N N  N  G       !!!           |
|           W WW W  AAAAAA  RRRRR   N  N N  II  N  N N  G  GGG   !            |
|           WW  WW  A    A  R   R   N   NN  II  N   NN  G    G                |
|           W    W  A    A  R    R  N    N  II  N    N   GGGG   !!!           |
|                                                                             |
|      For optimal performance we recommend to set                            |
|        NCORE= 4 - approx SQRT( number of cores)                             |
|      NCORE specifies how many cores store one orbital (NPAR=cpu/NCORE).     |
|      This setting can  greatly improve the performance of VASP for DFT.     |
|      The default, NPAR=number of cores might be grossly inefficient         |
|      on modern multi-core architectures or massively parallel machines.     |
|      Do your own testing !!!!                                               |
|      Unfortunately you need to use the default for GW and RPA calculations. |
|      (for HF NCORE is supported but not extensively tested yet)             |
|                                                                             |
 ----------------------------------------------------------------------------- 

 POTCAR:    PAW_PBE Mo_sv_GW 05Dec2013            
   VRHFIN =Mo: 4s4p5s4d                                                         
   LEXCH  = PE                                                                  
   EATOM  =  1861.5185 eV,  136.8178 Ry                                         
                                                                                
   TITEL  = PAW_PBE Mo_sv_GW 05Dec2013                                          
   LULTRA =        F    use ultrasoft PP ?                                      
   IUNSCR =        1    unscreen: 0-lin 1-nonlin 2-no                           
   RPACOR =    2.000    partial core radius                                     
   POMASS =   95.940; ZVAL   =   14.000    mass and valenz                      
   RCORE  =    2.100    outmost cutoff radius                                   
   RWIGS  =    2.100; RWIGS  =    1.111    wigner-seitz radius (au A)           
   ENMAX  =  344.914; ENMIN  =  258.686 eV                                      
   RCLOC  =    1.508    cutoff for local pot                                    
   LCOR   =        T    correct aug charges                                     
   LPAW   =        T    paw PP                                                  
   EAUG   =  964.741                                                            
   DEXC   =    0.000                                                            
   RMAX   =    2.149    core radius for proj-oper                               
   RAUG   =    1.300    factor for augmentation sphere                          
   RDEP   =    2.179    radius for radial grids                                 
   RDEPT  =    1.677    core radius for aug-charge                              
                                                                                
   Atomic configuration                                                         
   12 entries                                                                   
     n  l   j            E        occ.                                          
     1  0  0.50    -19816.9363   2.0000                                         
     2  0  0.50     -2796.7578   2.0000                                         
     2  1  1.50     -2499.7842   6.0000                                         
     3  0  0.50      -474.2095   2.0000                                         
     3  1  1.50      -376.9135   6.0000                                         
     3  2  2.50      -218.6898  10.0000                                         
     4  0  0.50       -62.1983   2.0000                                         
     4  0  0.50       -66.6685   0.0000                                         
     4  1  1.50       -36.4414   6.0000                                         
     4  1  1.50       -40.8175   0.0000                                         
     4  2  2.50        -2.3086   6.0000                                         
     4  3  2.50        -1.3606   0.0000                                         
   Description                                                                  
     l       E           TYP  RCUT    TYP  RCUT                                 
     0    -62.1983072     23  1.950                                             
     0     27.2116520     23  1.950                                             
     0    149.6640860     23  1.950                                             
     1    -36.4413666     23  1.800                                             
     1    -40.8174780     23  1.800                                             
     1     54.4233040     23  1.800                                             
     2     -2.3085597     23  2.000                                             
     2     -6.8029130     23  2.000                                             
     2    136.0582600     23  2.000                                             
     3     13.6058260     23  2.100                                             
     3     81.6349560     23  2.100                                             
  local pseudopotential read in
  partial core-charges read in
  partial kinetic energy density read in
  kinetic energy density of atom read in
  atomic valenz-charges read in
  non local Contribution for L=           0  read in
    real space projection operators read in
  non local Contribution for L=           0  read in
    real space projection operators read in
  non local Contribution for L=           0  read in
    real space projection operators read in
  non local Contribution for L=           1  read in
    real space projection operators read in
  non local Contribution for L=           1  read in
    real space projection operators read in
  non local Contribution for L=           1  read in
    real space projection operators read in
  non local Contribution for L=           2  read in
    real space projection operators read in
  non local Contribution for L=           2  read in
    real space projection operators read in
  non local Contribution for L=           2  read in
    real space projection operators read in
  non local Contribution for L=           3  read in
    real space projection operators read in
  non local Contribution for L=           3  read in
    real space projection operators read in
    PAW grid and wavefunctions read in
 
   number of l-projection  operators is LMAX  =          11
   number of lm-projection operators is LMMAX =          41
 
 POTCAR:    PAW_PBE Te_GW 22Mar2012               
   VRHFIN =Te: s2p4                                                             
   LEXCH  = PE                                                                  
   EATOM  =   223.2721 eV,   16.4100 Ry                                         
                                                                                
   TITEL  = PAW_PBE Te_GW 22Mar2012                                             
   LULTRA =        F    use ultrasoft PP ?                                      
   IUNSCR =        1    unscreen: 0-lin 1-nonlin 2-no                           
   RPACOR =    2.200    partial core radius                                     
   POMASS =  127.600; ZVAL   =    6.000    mass and valenz                      
   RCORE  =    2.600    outmost cutoff radius                                   
   RWIGS  =    2.900; RWIGS  =    1.535    wigner-seitz radius (au A)           
   ENMAX  =  174.982; ENMIN  =  131.236 eV                                      
   ICORE  =        3    local potential                                         
   LCOR   =        T    correct aug charges                                     
   LPAW   =        T    paw PP                                                  
   EAUG   =  368.792                                                            
   DEXC   =    0.000                                                            
   RMAX   =    2.665    core radius for proj-oper                               
   RAUG   =    1.300    factor for augmentation sphere                          
   RDEP   =    2.724    radius for radial grids                                 
   RDEPT  =    2.174    core radius for aug-charge                              
                                                                                
   Atomic configuration                                                         
   13 entries                                                                   
     n  l   j            E        occ.                                          
     1  0  0.50    -31621.2075   2.0000                                         
     2  0  0.50     -4848.7941   2.0000                                         
     2  1  1.50     -4352.1960   6.0000                                         
     3  0  0.50      -964.9612   2.0000                                         
     3  1  1.50      -803.6179   6.0000                                         
     3  2  2.50      -559.8710  10.0000                                         
     4  0  0.50      -164.3522   2.0000                                         
     4  1  1.50      -114.3756   6.0000                                         
     4  2  2.50       -41.6483  10.0000                                         
     5  0  0.50       -15.1072   2.0000                                         
     5  1  0.50        -5.9526   4.0000                                         
     5  2  1.50        -6.8029   0.0000                                         
     4  3  2.50        -6.8029   0.0000                                         
   Description                                                                  
     l       E           TYP  RCUT    TYP  RCUT                                 
     0    -15.1072389     23  2.300                                             
     0     68.0291300     23  2.300                                             
     1     -5.9526306     23  2.300                                             
     1     95.2407820     23  2.300                                             
     2      1.3605826     23  2.600                                             
     2     68.0291300     23  2.600                                             
     3     -1.3605826     23  2.300                                             
  local pseudopotential read in
  partial core-charges read in
  partial kinetic energy density read in
  kinetic energy density of atom read in
  atomic valenz-charges read in
  non local Contribution for L=           0  read in
    real space projection operators read in
  non local Contribution for L=           0  read in
    real space projection operators read in
  non local Contribution for L=           1  read in
    real space projection operators read in
  non local Contribution for L=           1  read in
    real space projection operators read in
  non local Contribution for L=           2  read in
    real space projection operators read in
  non local Contribution for L=           2  read in
    real space projection operators read in
    PAW grid and wavefunctions read in
 
   number of l-projection  operators is LMAX  =           6
   number of lm-projection operators is LMMAX =          18
 
  PAW_PBE Mo_sv_GW 05Dec2013            :
 energy of atom  1       EATOM=-1861.5185
 kinetic energy error for atom=    0.1105 (will be added to EATOM!!)
  PAW_PBE Te_GW 22Mar2012               :
 energy of atom  2       EATOM= -223.2721
 kinetic energy error for atom=    0.0019 (will be added to EATOM!!)
 
 
 POSCAR: Mo Te                                   
  positions in cartesian coordinates
  No initial velocities read in
 exchange correlation table for  LEXCH =        8
   RHO(1)=    0.500       N(1)  =     2000
   RHO(2)=  100.500       N(2)  =     4000
 


--------------------------------------------------------------------------------------------------------


 ion  position               nearest neighbor table
   1  0.167  0.333  0.360-   4 2.73   5 2.73   4 2.73   5 2.73   4 2.73   5 2.73
   2  0.833  0.667  0.500-   6 2.73   7 2.73   6 2.73   7 2.73   6 2.73   7 2.73
   3  0.167  0.333  0.640-   8 2.73   9 2.73   8 2.73   9 2.73   8 2.73   9 2.73
   4  0.833  0.667  0.397-   1 2.73   1 2.73   1 2.73   5 3.61
   5  0.833  0.667  0.324-   1 2.73   1 2.73   1 2.73   4 3.61
   6  0.167  0.333  0.536-   2 2.73   2 2.73   2 2.73   7 3.61
   7  0.167  0.333  0.464-   2 2.73   2 2.73   2 2.73   6 3.61
   8  0.833  0.667  0.676-   3 2.73   3 2.73   3 2.73   9 3.61
   9  0.833  0.667  0.603-   3 2.73   3 2.73   3 2.73   8 3.61
 
  LATTYP: Found a hexagonal cell.
 ALAT       =     3.5473923118
 C/A-ratio  =    14.0948605637
  
  Lattice vectors:
  
 A1 = (   3.5473923118,   0.0000000000,   0.0000000000)
 A2 = (  -1.7736961559,   3.0721318592,   0.0000000000)
 A3 = (   0.0000000000,   0.0000000000,  50.0000000000)


Analysis of symmetry for initial positions (statically):
=====================================================================
 Subroutine PRICEL returns:
 Original cell was already a primitive cell.
 

 Routine SETGRP: Setting up the symmetry group for a 
 hexagonal supercell.


 Subroutine GETGRP returns: Found 12 space group operations
 (whereof  4 operations were pure point group operations)
 out of a pool of 24 trial point group operations.


The static configuration has the point symmetry C_2v.
 The point group associated with its full space group is D_3h.


Analysis of symmetry for dynamics (positions and initial velocities):
=====================================================================
 Subroutine PRICEL returns:
 Original cell was already a primitive cell.
 

 Routine SETGRP: Setting up the symmetry group for a 
 hexagonal supercell.


 Subroutine GETGRP returns: Found 12 space group operations
 (whereof  4 operations were pure point group operations)
 out of a pool of 24 trial point group operations.


The dynamic configuration has the point symmetry C_2v.
 The point group associated with its full space group is D_3h.


 Subroutine INISYM returns: Found 12 space group operations
 (whereof  4 operations are pure point group operations),
 and found     1 'primitive' translations

 
 
 KPOINTS: KPOINTS created by Atomic Simulation Env

Automatic generation of k-mesh.
Space group operators:
 irot       det(A)        alpha          n_x          n_y          n_z        tau_x        tau_y        tau_z
    1     1.000000     0.000001     1.000000     0.000000     0.000000     0.000000     0.000000     0.000000
    2    -1.000000   179.999999     0.000000     0.000000     1.000000     0.000000     0.000000     0.000000
    3    -1.000000   180.000000     1.000000     0.000000     0.000000     0.000000     0.000000     0.000000
    4     1.000000   179.999999     0.000000     1.000000     0.000000     0.000000     0.000000     0.000000
    5    -1.000000    60.000000     0.000000     0.000000    -1.000000     0.000000     0.500000     0.000000
    6     1.000000   120.000000     0.000000     0.000000    -1.000000     0.500000     0.500000     0.000000
    7     1.000000   120.000000     0.000000     0.000000     1.000000     0.000000     0.500000     0.000000
    8    -1.000000    60.000000     0.000000     0.000000     1.000000     0.500000     0.500000     0.000000
    9     1.000000   180.000000     0.866025    -0.500000     0.000000     0.500000     0.500000     0.000000
   10    -1.000000   180.000000     0.500000    -0.866025     0.000000     0.000000     0.500000     0.000000
   11    -1.000000   180.000000    -0.500000    -0.866025     0.000000     0.500000     0.500000     0.000000
   12     1.000000   180.000000     0.866025     0.500000     0.000000     0.000000     0.500000     0.000000
 
 Subroutine IBZKPT returns following result:
 ===========================================
 
 Found     37 irreducible k-points:
 
 Following reciprocal coordinates:
            Coordinates               Weight
  0.000000  0.000000  0.000000      1.000000
  0.055556  0.000000  0.000000      6.000000
  0.111111  0.000000  0.000000      6.000000
  0.166667  0.000000  0.000000      6.000000
  0.222222  0.000000  0.000000      6.000000
  0.277778  0.000000  0.000000      6.000000
  0.333333  0.000000  0.000000      6.000000
  0.388889  0.000000  0.000000      6.000000
  0.444444  0.000000  0.000000      6.000000
  0.500000  0.000000  0.000000      3.000000
  0.055556  0.055556  0.000000      6.000000
  0.111111  0.055556  0.000000     12.000000
  0.166667  0.055556  0.000000     12.000000
  0.222222  0.055556  0.000000     12.000000
  0.277778  0.055556  0.000000     12.000000
  0.333333  0.055556  0.000000     12.000000
  0.388889  0.055556  0.000000     12.000000
  0.444444  0.055556  0.000000     12.000000
  0.111111  0.111111  0.000000      6.000000
  0.166667  0.111111  0.000000     12.000000
  0.222222  0.111111  0.000000     12.000000
  0.277778  0.111111  0.000000     12.000000
  0.333333  0.111111  0.000000     12.000000
  0.388889  0.111111  0.000000     12.000000
  0.444444  0.111111  0.000000      6.000000
  0.166667  0.166667  0.000000      6.000000
  0.222222  0.166667  0.000000     12.000000
  0.277778  0.166667  0.000000     12.000000
  0.333333  0.166667  0.000000     12.000000
  0.388889  0.166667  0.000000     12.000000
  0.222222  0.222222  0.000000      6.000000
  0.277778  0.222222  0.000000     12.000000
  0.333333  0.222222  0.000000     12.000000
  0.388889  0.222222  0.000000      6.000000
  0.277778  0.277778  0.000000      6.000000
  0.333333  0.277778  0.000000     12.000000
  0.333333  0.333333  0.000000      2.000000
 
 Following cartesian coordinates:
            Coordinates               Weight
  0.000000  0.000000  0.000000      1.000000
  0.015661  0.009042  0.000000      6.000000
  0.031322  0.018084  0.000000      6.000000
  0.046983  0.027126  0.000000      6.000000
  0.062644  0.036167  0.000000      6.000000
  0.078305  0.045209  0.000000      6.000000
  0.093966  0.054251  0.000000      6.000000
  0.109627  0.063293  0.000000      6.000000
  0.125288  0.072335  0.000000      6.000000
  0.140949  0.081377  0.000000      3.000000
  0.015661  0.027126  0.000000      6.000000
  0.031322  0.036167  0.000000     12.000000
  0.046983  0.045209  0.000000     12.000000
  0.062644  0.054251  0.000000     12.000000
  0.078305  0.063293  0.000000     12.000000
  0.093966  0.072335  0.000000     12.000000
  0.109627  0.081377  0.000000     12.000000
  0.125288  0.090419  0.000000     12.000000
  0.031322  0.054251  0.000000      6.000000
  0.046983  0.063293  0.000000     12.000000
  0.062644  0.072335  0.000000     12.000000
  0.078305  0.081377  0.000000     12.000000
  0.093966  0.090419  0.000000     12.000000
  0.109627  0.099460  0.000000     12.000000
  0.125288  0.108502  0.000000      6.000000
  0.046983  0.081377  0.000000      6.000000
  0.062644  0.090419  0.000000     12.000000
  0.078305  0.099460  0.000000     12.000000
  0.093966  0.108502  0.000000     12.000000
  0.109627  0.117544  0.000000     12.000000
  0.062644  0.108502  0.000000      6.000000
  0.078305  0.117544  0.000000     12.000000
  0.093966  0.126586  0.000000     12.000000
  0.109627  0.135628  0.000000      6.000000
  0.078305  0.135628  0.000000      6.000000
  0.093966  0.144670  0.000000     12.000000
  0.093966  0.162753  0.000000      2.000000
 
 TETIRR: Found    169 inequivalent tetrahedra from     1944
 
 Subroutine IBZKPT_HF returns following result:
 ==============================================
 
 Found    324 k-points in 1st BZ
 the following    324 k-points will be used (e.g. in the exchange kernel)
 Following reciprocal coordinates:   # in IRBZ
  0.000000  0.000000  0.000000    0.00308642   1 t-inv F
  0.055556  0.000000  0.000000    0.00308642   2 t-inv F
  0.111111  0.000000  0.000000    0.00308642   3 t-inv F
  0.166667  0.000000  0.000000    0.00308642   4 t-inv F
  0.222222  0.000000  0.000000    0.00308642   5 t-inv F
  0.277778  0.000000  0.000000    0.00308642   6 t-inv F
  0.333333  0.000000  0.000000    0.00308642   7 t-inv F
  0.388889  0.000000  0.000000    0.00308642   8 t-inv F
  0.444444  0.000000  0.000000    0.00308642   9 t-inv F
  0.500000  0.000000  0.000000    0.00308642  10 t-inv F
  0.055556  0.055556  0.000000    0.00308642  11 t-inv F
  0.111111  0.055556  0.000000    0.00308642  12 t-inv F
  0.166667  0.055556  0.000000    0.00308642  13 t-inv F
  0.222222  0.055556  0.000000    0.00308642  14 t-inv F
  0.277778  0.055556  0.000000    0.00308642  15 t-inv F
  0.333333  0.055556  0.000000    0.00308642  16 t-inv F
  0.388889  0.055556  0.000000    0.00308642  17 t-inv F
  0.444444  0.055556  0.000000    0.00308642  18 t-inv F
  0.111111  0.111111  0.000000    0.00308642  19 t-inv F
  0.166667  0.111111  0.000000    0.00308642  20 t-inv F
  0.222222  0.111111  0.000000    0.00308642  21 t-inv F
  0.277778  0.111111  0.000000    0.00308642  22 t-inv F
  0.333333  0.111111  0.000000    0.00308642  23 t-inv F
  0.388889  0.111111  0.000000    0.00308642  24 t-inv F
  0.444444  0.111111  0.000000    0.00308642  25 t-inv F
  0.166667  0.166667  0.000000    0.00308642  26 t-inv F
  0.222222  0.166667  0.000000    0.00308642  27 t-inv F
  0.277778  0.166667  0.000000    0.00308642  28 t-inv F
  0.333333  0.166667  0.000000    0.00308642  29 t-inv F
  0.388889  0.166667  0.000000    0.00308642  30 t-inv F
  0.222222  0.222222  0.000000    0.00308642  31 t-inv F
  0.277778  0.222222  0.000000    0.00308642  32 t-inv F
  0.333333  0.222222  0.000000    0.00308642  33 t-inv F
  0.388889  0.222222  0.000000    0.00308642  34 t-inv F
  0.277778  0.277778  0.000000    0.00308642  35 t-inv F
  0.333333  0.277778  0.000000    0.00308642  36 t-inv F
  0.333333  0.333333  0.000000    0.00308642  37 t-inv F
 -0.055556  0.055556  0.000000    0.00308642   2 t-inv F
  0.000000 -0.055556 -0.000000    0.00308642   2 t-inv F
 -0.111111  0.111111  0.000000    0.00308642   3 t-inv F
  0.000000 -0.111111 -0.000000    0.00308642   3 t-inv F
 -0.166667  0.166667  0.000000    0.00308642   4 t-inv F
  0.000000 -0.166667 -0.000000    0.00308642   4 t-inv F
 -0.222222  0.222222  0.000000    0.00308642   5 t-inv F
  0.000000 -0.222222 -0.000000    0.00308642   5 t-inv F
 -0.277778  0.277778  0.000000    0.00308642   6 t-inv F
  0.000000 -0.277778 -0.000000    0.00308642   6 t-inv F
 -0.333333  0.333333  0.000000    0.00308642   7 t-inv F
  0.000000 -0.333333 -0.000000    0.00308642   7 t-inv F
 -0.388889  0.388889  0.000000    0.00308642   8 t-inv F
  0.000000 -0.388889 -0.000000    0.00308642   8 t-inv F
 -0.444444  0.444444  0.000000    0.00308642   9 t-inv F
  0.000000 -0.444444 -0.000000    0.00308642   9 t-inv F
 -0.500000  0.500000  0.000000    0.00308642  10 t-inv F
  0.000000 -0.500000 -0.000000    0.00308642  10 t-inv F
 -0.055556  0.111111  0.000000    0.00308642  11 t-inv F
  0.055556 -0.111111 -0.000000    0.00308642  11 t-inv F
 -0.111111  0.055556  0.000000    0.00308642  11 t-inv F
 -0.055556 -0.055556 -0.000000    0.00308642  11 t-inv F
  0.111111 -0.055556  0.000000    0.00308642  11 t-inv F
 -0.111111  0.166667  0.000000    0.00308642  12 t-inv F
  0.055556 -0.166667 -0.000000    0.00308642  12 t-inv F
 -0.166667  0.111111  0.000000    0.00308642  12 t-inv F
 -0.055556 -0.111111 -0.000000    0.00308642  12 t-inv F
  0.166667 -0.055556  0.000000    0.00308642  12 t-inv F
 -0.166667  0.222222  0.000000    0.00308642  13 t-inv F
  0.055556 -0.222222 -0.000000    0.00308642  13 t-inv F
 -0.222222  0.166667  0.000000    0.00308642  13 t-inv F
 -0.055556 -0.166667 -0.000000    0.00308642  13 t-inv F
  0.222222 -0.055556  0.000000    0.00308642  13 t-inv F
 -0.222222  0.277778  0.000000    0.00308642  14 t-inv F
  0.055556 -0.277778 -0.000000    0.00308642  14 t-inv F
 -0.277778  0.222222  0.000000    0.00308642  14 t-inv F
 -0.055556 -0.222222 -0.000000    0.00308642  14 t-inv F
  0.277778 -0.055556  0.000000    0.00308642  14 t-inv F
 -0.277778  0.333333  0.000000    0.00308642  15 t-inv F
  0.055556 -0.333333 -0.000000    0.00308642  15 t-inv F
 -0.333333  0.277778  0.000000    0.00308642  15 t-inv F
 -0.055556 -0.277778 -0.000000    0.00308642  15 t-inv F
  0.333333 -0.055556  0.000000    0.00308642  15 t-inv F
 -0.333333  0.388889  0.000000    0.00308642  16 t-inv F
  0.055556 -0.388889 -0.000000    0.00308642  16 t-inv F
 -0.388889  0.333333  0.000000    0.00308642  16 t-inv F
 -0.055556 -0.333333 -0.000000    0.00308642  16 t-inv F
  0.388889 -0.055556  0.000000    0.00308642  16 t-inv F
 -0.388889  0.444444  0.000000    0.00308642  17 t-inv F
  0.055556 -0.444444 -0.000000    0.00308642  17 t-inv F
 -0.444444  0.388889  0.000000    0.00308642  17 t-inv F
 -0.055556 -0.388889 -0.000000    0.00308642  17 t-inv F
  0.444444 -0.055556  0.000000    0.00308642  17 t-inv F
 -0.444444  0.500000  0.000000    0.00308642  18 t-inv F
  0.055556 -0.500000 -0.000000    0.00308642  18 t-inv F
 -0.500000  0.444444  0.000000    0.00308642  18 t-inv F
 -0.055556 -0.444444 -0.000000    0.00308642  18 t-inv F
  0.500000 -0.055556  0.000000    0.00308642  18 t-inv F
 -0.111111  0.222222  0.000000    0.00308642  19 t-inv F
  0.111111 -0.222222 -0.000000    0.00308642  19 t-inv F
 -0.222222  0.111111  0.000000    0.00308642  19 t-inv F
 -0.111111 -0.111111 -0.000000    0.00308642  19 t-inv F
  0.222222 -0.111111  0.000000    0.00308642  19 t-inv F
 -0.166667  0.277778  0.000000    0.00308642  20 t-inv F
  0.111111 -0.277778 -0.000000    0.00308642  20 t-inv F
 -0.277778  0.166667  0.000000    0.00308642  20 t-inv F
 -0.111111 -0.166667 -0.000000    0.00308642  20 t-inv F
  0.277778 -0.111111  0.000000    0.00308642  20 t-inv F
 -0.222222  0.333333  0.000000    0.00308642  21 t-inv F
  0.111111 -0.333333 -0.000000    0.00308642  21 t-inv F
 -0.333333  0.222222  0.000000    0.00308642  21 t-inv F
 -0.111111 -0.222222 -0.000000    0.00308642  21 t-inv F
  0.333333 -0.111111  0.000000    0.00308642  21 t-inv F
 -0.277778  0.388889  0.000000    0.00308642  22 t-inv F
  0.111111 -0.388889 -0.000000    0.00308642  22 t-inv F
 -0.388889  0.277778  0.000000    0.00308642  22 t-inv F
 -0.111111 -0.277778 -0.000000    0.00308642  22 t-inv F
  0.388889 -0.111111  0.000000    0.00308642  22 t-inv F
 -0.333333  0.444444  0.000000    0.00308642  23 t-inv F
  0.111111 -0.444444 -0.000000    0.00308642  23 t-inv F
 -0.444444  0.333333  0.000000    0.00308642  23 t-inv F
 -0.111111 -0.333333 -0.000000    0.00308642  23 t-inv F
  0.444444 -0.111111  0.000000    0.00308642  23 t-inv F
 -0.388889  0.500000  0.000000    0.00308642  24 t-inv F
  0.111111 -0.500000 -0.000000    0.00308642  24 t-inv F
 -0.500000  0.388889  0.000000    0.00308642  24 t-inv F
 -0.111111 -0.388889 -0.000000    0.00308642  24 t-inv F
  0.500000 -0.111111  0.000000    0.00308642  24 t-inv F
 -0.444444  0.555556  0.000000    0.00308642  25 t-inv F
  0.111111 -0.555556 -0.000000    0.00308642  25 t-inv F
 -0.555556  0.444444  0.000000    0.00308642  25 t-inv F
 -0.111111 -0.444444 -0.000000    0.00308642  25 t-inv F
  0.555556 -0.111111  0.000000    0.00308642  25 t-inv F
 -0.166667  0.333333  0.000000    0.00308642  26 t-inv F
  0.166667 -0.333333 -0.000000    0.00308642  26 t-inv F
 -0.333333  0.166667  0.000000    0.00308642  26 t-inv F
 -0.166667 -0.166667 -0.000000    0.00308642  26 t-inv F
  0.333333 -0.166667  0.000000    0.00308642  26 t-inv F
 -0.222222  0.388889  0.000000    0.00308642  27 t-inv F
  0.166667 -0.388889 -0.000000    0.00308642  27 t-inv F
 -0.388889  0.222222  0.000000    0.00308642  27 t-inv F
 -0.166667 -0.222222 -0.000000    0.00308642  27 t-inv F
  0.388889 -0.166667  0.000000    0.00308642  27 t-inv F
 -0.277778  0.444444  0.000000    0.00308642  28 t-inv F
  0.166667 -0.444444 -0.000000    0.00308642  28 t-inv F
 -0.444444  0.277778  0.000000    0.00308642  28 t-inv F
 -0.166667 -0.277778 -0.000000    0.00308642  28 t-inv F
  0.444444 -0.166667  0.000000    0.00308642  28 t-inv F
 -0.333333  0.500000  0.000000    0.00308642  29 t-inv F
  0.166667 -0.500000 -0.000000    0.00308642  29 t-inv F
 -0.500000  0.333333  0.000000    0.00308642  29 t-inv F
 -0.166667 -0.333333 -0.000000    0.00308642  29 t-inv F
  0.500000 -0.166667  0.000000    0.00308642  29 t-inv F
 -0.388889  0.555556  0.000000    0.00308642  30 t-inv F
  0.166667 -0.555556 -0.000000    0.00308642  30 t-inv F
 -0.555556  0.388889  0.000000    0.00308642  30 t-inv F
 -0.166667 -0.388889 -0.000000    0.00308642  30 t-inv F
  0.555556 -0.166667  0.000000    0.00308642  30 t-inv F
 -0.222222  0.444444  0.000000    0.00308642  31 t-inv F
  0.222222 -0.444444 -0.000000    0.00308642  31 t-inv F
 -0.444444  0.222222  0.000000    0.00308642  31 t-inv F
 -0.222222 -0.222222 -0.000000    0.00308642  31 t-inv F
  0.444444 -0.222222  0.000000    0.00308642  31 t-inv F
 -0.277778  0.500000  0.000000    0.00308642  32 t-inv F
  0.222222 -0.500000 -0.000000    0.00308642  32 t-inv F
 -0.500000  0.277778  0.000000    0.00308642  32 t-inv F
 -0.222222 -0.277778 -0.000000    0.00308642  32 t-inv F
  0.500000 -0.222222  0.000000    0.00308642  32 t-inv F
 -0.333333  0.555556  0.000000    0.00308642  33 t-inv F
  0.222222 -0.555556 -0.000000    0.00308642  33 t-inv F
 -0.555556  0.333333  0.000000    0.00308642  33 t-inv F
 -0.222222 -0.333333 -0.000000    0.00308642  33 t-inv F
  0.555556 -0.222222  0.000000    0.00308642  33 t-inv F
 -0.388889  0.611111  0.000000    0.00308642  34 t-inv F
  0.222222 -0.611111 -0.000000    0.00308642  34 t-inv F
 -0.611111  0.388889  0.000000    0.00308642  34 t-inv F
 -0.222222 -0.388889 -0.000000    0.00308642  34 t-inv F
  0.611111 -0.222222  0.000000    0.00308642  34 t-inv F
 -0.277778  0.555556  0.000000    0.00308642  35 t-inv F
  0.277778 -0.555556 -0.000000    0.00308642  35 t-inv F
 -0.555556  0.277778  0.000000    0.00308642  35 t-inv F
 -0.277778 -0.277778 -0.000000    0.00308642  35 t-inv F
  0.555556 -0.277778  0.000000    0.00308642  35 t-inv F
 -0.333333  0.611111  0.000000    0.00308642  36 t-inv F
  0.277778 -0.611111 -0.000000    0.00308642  36 t-inv F
 -0.611111  0.333333  0.000000    0.00308642  36 t-inv F
 -0.277778 -0.333333 -0.000000    0.00308642  36 t-inv F
  0.611111 -0.277778  0.000000    0.00308642  36 t-inv F
 -0.333333  0.666667  0.000000    0.00308642  37 t-inv F
 -0.055556 -0.000000 -0.000000    0.00308642   2 t-inv T
  0.055556 -0.055556 -0.000000    0.00308642   2 t-inv T
 -0.000000  0.055556  0.000000    0.00308642   2 t-inv T
 -0.111111 -0.000000 -0.000000    0.00308642   3 t-inv T
  0.111111 -0.111111 -0.000000    0.00308642   3 t-inv T
 -0.000000  0.111111  0.000000    0.00308642   3 t-inv T
 -0.166667 -0.000000 -0.000000    0.00308642   4 t-inv T
  0.166667 -0.166667 -0.000000    0.00308642   4 t-inv T
 -0.000000  0.166667  0.000000    0.00308642   4 t-inv T
 -0.222222 -0.000000 -0.000000    0.00308642   5 t-inv T
  0.222222 -0.222222 -0.000000    0.00308642   5 t-inv T
 -0.000000  0.222222  0.000000    0.00308642   5 t-inv T
 -0.277778 -0.000000 -0.000000    0.00308642   6 t-inv T
  0.277778 -0.277778 -0.000000    0.00308642   6 t-inv T
 -0.000000  0.277778  0.000000    0.00308642   6 t-inv T
 -0.333333 -0.000000 -0.000000    0.00308642   7 t-inv T
  0.333333 -0.333333 -0.000000    0.00308642   7 t-inv T
 -0.000000  0.333333  0.000000    0.00308642   7 t-inv T
 -0.388889 -0.000000 -0.000000    0.00308642   8 t-inv T
  0.388889 -0.388889 -0.000000    0.00308642   8 t-inv T
 -0.000000  0.388889  0.000000    0.00308642   8 t-inv T
 -0.444444 -0.000000 -0.000000    0.00308642   9 t-inv T
  0.444444 -0.444444 -0.000000    0.00308642   9 t-inv T
 -0.000000  0.444444  0.000000    0.00308642   9 t-inv T
 -0.111111 -0.055556 -0.000000    0.00308642  12 t-inv T
  0.111111 -0.166667 -0.000000    0.00308642  12 t-inv T
 -0.055556  0.166667  0.000000    0.00308642  12 t-inv T
  0.166667 -0.111111 -0.000000    0.00308642  12 t-inv T
  0.055556  0.111111  0.000000    0.00308642  12 t-inv T
 -0.166667  0.055556 -0.000000    0.00308642  12 t-inv T
 -0.166667 -0.055556 -0.000000    0.00308642  13 t-inv T
  0.166667 -0.222222 -0.000000    0.00308642  13 t-inv T
 -0.055556  0.222222  0.000000    0.00308642  13 t-inv T
  0.222222 -0.166667 -0.000000    0.00308642  13 t-inv T
  0.055556  0.166667  0.000000    0.00308642  13 t-inv T
 -0.222222  0.055556 -0.000000    0.00308642  13 t-inv T
 -0.222222 -0.055556 -0.000000    0.00308642  14 t-inv T
  0.222222 -0.277778 -0.000000    0.00308642  14 t-inv T
 -0.055556  0.277778  0.000000    0.00308642  14 t-inv T
  0.277778 -0.222222 -0.000000    0.00308642  14 t-inv T
  0.055556  0.222222  0.000000    0.00308642  14 t-inv T
 -0.277778  0.055556 -0.000000    0.00308642  14 t-inv T
 -0.277778 -0.055556 -0.000000    0.00308642  15 t-inv T
  0.277778 -0.333333 -0.000000    0.00308642  15 t-inv T
 -0.055556  0.333333  0.000000    0.00308642  15 t-inv T
  0.333333 -0.277778 -0.000000    0.00308642  15 t-inv T
  0.055556  0.277778  0.000000    0.00308642  15 t-inv T
 -0.333333  0.055556 -0.000000    0.00308642  15 t-inv T
 -0.333333 -0.055556 -0.000000    0.00308642  16 t-inv T
  0.333333 -0.388889 -0.000000    0.00308642  16 t-inv T
 -0.055556  0.388889  0.000000    0.00308642  16 t-inv T
  0.388889 -0.333333 -0.000000    0.00308642  16 t-inv T
  0.055556  0.333333  0.000000    0.00308642  16 t-inv T
 -0.388889  0.055556 -0.000000    0.00308642  16 t-inv T
 -0.388889 -0.055556 -0.000000    0.00308642  17 t-inv T
  0.388889 -0.444444 -0.000000    0.00308642  17 t-inv T
 -0.055556  0.444444  0.000000    0.00308642  17 t-inv T
  0.444444 -0.388889 -0.000000    0.00308642  17 t-inv T
  0.055556  0.388889  0.000000    0.00308642  17 t-inv T
 -0.444444  0.055556 -0.000000    0.00308642  17 t-inv T
 -0.444444 -0.055556 -0.000000    0.00308642  18 t-inv T
  0.444444 -0.500000 -0.000000    0.00308642  18 t-inv T
 -0.055556  0.500000  0.000000    0.00308642  18 t-inv T
  0.500000 -0.444444 -0.000000    0.00308642  18 t-inv T
  0.055556  0.444444  0.000000    0.00308642  18 t-inv T
 -0.500000  0.055556 -0.000000    0.00308642  18 t-inv T
 -0.166667 -0.111111 -0.000000    0.00308642  20 t-inv T
  0.166667 -0.277778 -0.000000    0.00308642  20 t-inv T
 -0.111111  0.277778  0.000000    0.00308642  20 t-inv T
  0.277778 -0.166667 -0.000000    0.00308642  20 t-inv T
  0.111111  0.166667  0.000000    0.00308642  20 t-inv T
 -0.277778  0.111111 -0.000000    0.00308642  20 t-inv T
 -0.222222 -0.111111 -0.000000    0.00308642  21 t-inv T
  0.222222 -0.333333 -0.000000    0.00308642  21 t-inv T
 -0.111111  0.333333  0.000000    0.00308642  21 t-inv T
  0.333333 -0.222222 -0.000000    0.00308642  21 t-inv T
  0.111111  0.222222  0.000000    0.00308642  21 t-inv T
 -0.333333  0.111111 -0.000000    0.00308642  21 t-inv T
 -0.277778 -0.111111 -0.000000    0.00308642  22 t-inv T
  0.277778 -0.388889 -0.000000    0.00308642  22 t-inv T
 -0.111111  0.388889  0.000000    0.00308642  22 t-inv T
  0.388889 -0.277778 -0.000000    0.00308642  22 t-inv T
  0.111111  0.277778  0.000000    0.00308642  22 t-inv T
 -0.388889  0.111111 -0.000000    0.00308642  22 t-inv T
 -0.333333 -0.111111 -0.000000    0.00308642  23 t-inv T
  0.333333 -0.444444 -0.000000    0.00308642  23 t-inv T
 -0.111111  0.444444  0.000000    0.00308642  23 t-inv T
  0.444444 -0.333333 -0.000000    0.00308642  23 t-inv T
  0.111111  0.333333  0.000000    0.00308642  23 t-inv T
 -0.444444  0.111111 -0.000000    0.00308642  23 t-inv T
 -0.388889 -0.111111 -0.000000    0.00308642  24 t-inv T
  0.388889 -0.500000 -0.000000    0.00308642  24 t-inv T
 -0.111111  0.500000  0.000000    0.00308642  24 t-inv T
  0.500000 -0.388889 -0.000000    0.00308642  24 t-inv T
  0.111111  0.388889  0.000000    0.00308642  24 t-inv T
 -0.500000  0.111111 -0.000000    0.00308642  24 t-inv T
 -0.222222 -0.166667 -0.000000    0.00308642  27 t-inv T
  0.222222 -0.388889 -0.000000    0.00308642  27 t-inv T
 -0.166667  0.388889  0.000000    0.00308642  27 t-inv T
  0.388889 -0.222222 -0.000000    0.00308642  27 t-inv T
  0.166667  0.222222  0.000000    0.00308642  27 t-inv T
 -0.388889  0.166667 -0.000000    0.00308642  27 t-inv T
 -0.277778 -0.166667 -0.000000    0.00308642  28 t-inv T
  0.277778 -0.444444 -0.000000    0.00308642  28 t-inv T
 -0.166667  0.444444  0.000000    0.00308642  28 t-inv T
  0.444444 -0.277778 -0.000000    0.00308642  28 t-inv T
  0.166667  0.277778  0.000000    0.00308642  28 t-inv T
 -0.444444  0.166667 -0.000000    0.00308642  28 t-inv T
 -0.333333 -0.166667 -0.000000    0.00308642  29 t-inv T
  0.333333 -0.500000 -0.000000    0.00308642  29 t-inv T
 -0.166667  0.500000  0.000000    0.00308642  29 t-inv T
  0.500000 -0.333333 -0.000000    0.00308642  29 t-inv T
  0.166667  0.333333  0.000000    0.00308642  29 t-inv T
 -0.500000  0.166667 -0.000000    0.00308642  29 t-inv T
 -0.388889 -0.166667 -0.000000    0.00308642  30 t-inv T
  0.388889 -0.555556 -0.000000    0.00308642  30 t-inv T
 -0.166667  0.555556  0.000000    0.00308642  30 t-inv T
  0.555556 -0.388889 -0.000000    0.00308642  30 t-inv T
  0.166667  0.388889  0.000000    0.00308642  30 t-inv T
 -0.555556  0.166667 -0.000000    0.00308642  30 t-inv T
 -0.277778 -0.222222 -0.000000    0.00308642  32 t-inv T
  0.277778 -0.500000 -0.000000    0.00308642  32 t-inv T
 -0.222222  0.500000  0.000000    0.00308642  32 t-inv T
  0.500000 -0.277778 -0.000000    0.00308642  32 t-inv T
  0.222222  0.277778  0.000000    0.00308642  32 t-inv T
 -0.500000  0.222222 -0.000000    0.00308642  32 t-inv T
 -0.333333 -0.222222 -0.000000    0.00308642  33 t-inv T
  0.333333 -0.555556 -0.000000    0.00308642  33 t-inv T
 -0.222222  0.555556  0.000000    0.00308642  33 t-inv T
  0.555556 -0.333333 -0.000000    0.00308642  33 t-inv T
  0.222222  0.333333  0.000000    0.00308642  33 t-inv T
 -0.555556  0.222222 -0.000000    0.00308642  33 t-inv T
 -0.333333 -0.277778 -0.000000    0.00308642  36 t-inv T
  0.333333 -0.611111 -0.000000    0.00308642  36 t-inv T
 -0.277778  0.611111  0.000000    0.00308642  36 t-inv T
  0.611111 -0.333333 -0.000000    0.00308642  36 t-inv T
  0.277778  0.333333  0.000000    0.00308642  36 t-inv T
 -0.611111  0.277778 -0.000000    0.00308642  36 t-inv T


--------------------------------------------------------------------------------------------------------




 Dimension of arrays:
   k-points           NKPTS =     37   k-points in BZ     NKDIM =     37   number of bands    NBANDS=     56
   number of dos      NEDOS =    301   number of ions     NIONS =      9
   non local maximal  LDIM  =     11   non local SUM 2l+1 LMDIM =     41
   total plane-waves  NPLWV = 184320
   max r-space proj   IRMAX =      1   max aug-charges    IRDMAX=  19872
   dimension x,y,z NGX =    24 NGY =   24 NGZ =  320
   dimension x,y,z NGXF=    48 NGYF=   48 NGZF=  640
   support grid    NGXF=    48 NGYF=   48 NGZF=  640
   ions per type =               3   6
 NGX,Y,Z   is equivalent  to a cutoff of  11.25, 11.25, 10.64 a.u.
 NGXF,Y,Z  is equivalent  to a cutoff of  22.49, 22.49, 21.28 a.u.


 I would recommend the setting:
   dimension x,y,z NGX =    21 NGY =   21 NGZ =  303
 SYSTEM =  unknown system                          
 POSCAR =  Mo Te                                   

 Startparameter for this run:
   NWRITE =      2    write-flag & timer
   PREC   = accura    normal or accurate (medium, high low for compatibility)
   ISTART =      0    job   : 0-new  1-cont  2-samecut
   ICHARG =      2    charge: 1-file 2-atom 10-const
   ISPIN  =      1    spin polarized calculation?
   LNONCOLLINEAR =      F non collinear calculations
   LSORBIT =      F    spin-orbit coupling
   INIWAV =      1    electr: 0-lowe 1-rand  2-diag
   LASPH  =      F    aspherical Exc in radial PAW
   METAGGA=      F    non-selfconsistent MetaGGA calc.

 Electronic Relaxation 1
   ENCUT  =  344.9 eV  25.35 Ry    5.03 a.u.   5.37  5.37 75.72*2*pi/ulx,y,z
   ENINI  =  344.9     initial cutoff
   ENAUG  =  964.7 eV  augmentation charge cutoff
   NELM   =     60;   NELMIN=  5; NELMDL= -5     # of ELM steps 
   EDIFF  = 0.1E-07   stopping-criterion for ELM
   LREAL  =      F    real-space projection
   NLSPLINE    = F    spline interpolate recip. space projectors
   LCOMPAT=      F    compatible to vasp.4.4
   GGA_COMPAT  = T    GGA compatible to vasp.4.4-vasp.4.6
   LMAXPAW     = -100 max onsite density
   LMAXMIX     =    2 max onsite mixed and CHGCAR
   VOSKOWN=      0    Vosko Wilk Nusair interpolation
   ROPT   =    0.00000   0.00000
 Ionic relaxation
   EDIFFG = 0.1E-06   stopping-criterion for IOM
   NSW    =      0    number of steps for IOM
   NBLOCK =      1;   KBLOCK =      1    inner block; outer block 
   IBRION =     -1    ionic relax: 0-MD 1-quasi-New 2-CG
   NFREE  =      0    steps in history (QN), initial steepest desc. (CG)
   ISIF   =      2    stress and relaxation
   IWAVPR =     10    prediction:  0-non 1-charg 2-wave 3-comb
   ISYM   =      2    0-nonsym 1-usesym 2-fastsym
   LCORR  =      T    Harris-Foulkes like correction to forces

   POTIM  = 0.5000    time-step for ionic-motion
   TEIN   =    0.0    initial temperature
   TEBEG  =    0.0;   TEEND  =   0.0 temperature during run
   SMASS  =  -3.00    Nose mass-parameter (am)
   estimated Nose-frequenzy (Omega)   =  0.10E-29 period in steps =****** mass=  -0.288E-27a.u.
   SCALEE = 1.0000    scale energy and forces
   NPACO  =    256;   APACO  = 16.0  distance and # of slots for P.C.
   PSTRESS=    0.0 pullay stress

  Mass of Ions in am
   POMASS =  95.94127.60
  Ionic Valenz
   ZVAL   =  14.00  6.00
  Atomic Wigner-Seitz radii
   RWIGS  =  -1.00 -1.00
  virtual crystal weights 
   VCA    =   1.00  1.00
   NELECT =      78.0000    total number of electrons
   NUPDOWN=      -1.0000    fix difference up-down

 DOS related values:
   EMIN   =  10.00;   EMAX   =-10.00  energy-range for DOS
   EFERMI =   0.00
   ISMEAR =    -5;   SIGMA  =   0.01  broadening in eV -4-tet -1-fermi 0-gaus

 Electronic relaxation 2 (details)
   IALGO  =     38    algorithm
   LDIAG  =      T    sub-space diagonalisation (order eigenvalues)
   LSUBROT=      F    optimize rotation matrix (better conditioning)
   TURBO    =      0    0=normal 1=particle mesh
   IRESTART =      0    0=no restart 2=restart with 2 vectors
   NREBOOT  =      0    no. of reboots
   NMIN     =      0    reboot dimension
   EREF     =   0.00    reference energy to select bands
   IMIX   =      4    mixing-type and parameters
     AMIX     =   0.40;   BMIX     =  1.00
     AMIX_MAG =   1.60;   BMIX_MAG =  1.00
     AMIN     =   0.10
     WC   =   100.;   INIMIX=   1;  MIXPRE=   1;  MAXMIX= -45

 Intra band minimization:
   WEIMIN = 0.0000     energy-eigenvalue tresh-hold
   EBREAK =  0.45E-10  absolut break condition
   DEPER  =   0.30     relativ break condition  

   TIME   =   0.40     timestep for ELM

  volume/ion in A,a.u.               =      60.54       408.58
  Fermi-wavevector in a.u.,A,eV,Ry     =   0.856380  1.618324  9.978339  0.733387
  Thomas-Fermi vector in A             =   1.973273
 
 Write flags
   LWAVE  =      T    write WAVECAR
   LCHARG =      T    write CHGCAR
   LVTOT  =      F    write LOCPOT, total local potential
   LVHAR  =      F    write LOCPOT, Hartree potential only
   LELF   =      F    write electronic localiz. function (ELF)
   LORBIT =      0    0 simple, 1 ext, 2 COOP (PROOUT)


 Dipole corrections
   LMONO  =      F    monopole corrections only (constant potential shift)
   LDIPOL =      F    correct potential (dipole corrections)
   IDIPOL =      0    1-x, 2-y, 3-z, 4-all directions 
   EPSILON=  1.0000000 bulk dielectric constant

 Exchange correlation treatment:
   GGA     =    PE    GGA type
   LEXCH   =     8    internal setting for exchange type
   VOSKOWN=      0    Vosko Wilk Nusair interpolation
   LHFCALC =     F    Hartree Fock is set to
   LHFONE  =     F    Hartree Fock one center treatment
   AEXX    =    0.0000 exact exchange contribution

 Linear response parameters
   LEPSILON=     T    determine dielectric tensor
   LRPA    =     F    only Hartree local field effects (RPA)
   LNABLA  =     F    use nabla operator in PAW spheres
   LVEL    =     F    velocity operator in full k-point grid
   LINTERFAST=   F  fast interpolation
   KINTER  =     0    interpolate to denser k-point grid
   CSHIFT  =0.1000    complex shift for real part using Kramers Kronig
   OMEGAMAX=  -1.0    maximum frequency
   DEG_THRESHOLD= 0.2000000E-02 threshold for treating states as degnerate
   RTIME   =    0.100 relaxation time in fs

 Orbital magnetization related:
   ORBITALMAG=     F  switch on orbital magnetization
   LCHIMAG   =     F  perturbation theory with respect to B field
   DQ        =  0.001000  dq finite difference perturbation B field



--------------------------------------------------------------------------------------------------------


 Static calculation
 charge density and potential will be updated during run
 non-spin polarized calculation
 Variant of blocked Davidson
 Davidson routine will perform the subspace rotation
 perform sub-space diagonalisation
    after iterative eigenvector-optimisation
 modified Broyden-mixing scheme, WC =      100.0
 initial mixing is a Kerker type mixing with AMIX =  0.4000 and BMIX =      1.0000
 Hartree-type preconditioning will be used
 using additional bands           17
 reciprocal scheme for non local part
 use partial core corrections
 calculate Harris-corrections to forces 
   (improved forces if not selfconsistent)
 use gradient corrections 
 use of overlap-Matrix (Vanderbilt PP)
 Fermi weights with tetrahedron method with Bloechl corrections


--------------------------------------------------------------------------------------------------------


  energy-cutoff  :      344.91
  volume of cell :      544.90
      direct lattice vectors                 reciprocal lattice vectors
     3.547392312  0.000000000  0.000000000     0.281897211  0.162753431  0.000000000
    -1.773696156  3.072131859  0.000000000     0.000000000  0.325506862  0.000000000
     0.000000000  0.000000000 50.000000000     0.000000000  0.000000000  0.020000000

  length of vectors
     3.547392312  3.547392312 50.000000000     0.325506862  0.325506862  0.020000000


 
 k-points in units of 2pi/SCALE and weight: KPOINTS created by Atomic Simulation Env
   0.00000000  0.00000000  0.00000000       0.003
   0.01566096  0.00904186  0.00000000       0.019
   0.03132191  0.01808371  0.00000000       0.019
   0.04698287  0.02712557  0.00000000       0.019
   0.06264382  0.03616743  0.00000000       0.019
   0.07830478  0.04520929  0.00000000       0.019
   0.09396574  0.05425114  0.00000000       0.019
   0.10962669  0.06329300  0.00000000       0.019
   0.12528765  0.07233486  0.00000000       0.019
   0.14094861  0.08137672  0.00000000       0.009
   0.01566096  0.02712557  0.00000000       0.019
   0.03132191  0.03616743  0.00000000       0.037
   0.04698287  0.04520929  0.00000000       0.037
   0.06264382  0.05425114  0.00000000       0.037
   0.07830478  0.06329300  0.00000000       0.037
   0.09396574  0.07233486  0.00000000       0.037
   0.10962669  0.08137672  0.00000000       0.037
   0.12528765  0.09041857  0.00000000       0.037
   0.03132191  0.05425114  0.00000000       0.019
   0.04698287  0.06329300  0.00000000       0.037
   0.06264382  0.07233486  0.00000000       0.037
   0.07830478  0.08137672  0.00000000       0.037
   0.09396574  0.09041857  0.00000000       0.037
   0.10962669  0.09946043  0.00000000       0.037
   0.12528765  0.10850229  0.00000000       0.019
   0.04698287  0.08137672  0.00000000       0.019
   0.06264382  0.09041857  0.00000000       0.037
   0.07830478  0.09946043  0.00000000       0.037
   0.09396574  0.10850229  0.00000000       0.037
   0.10962669  0.11754414  0.00000000       0.037
   0.06264382  0.10850229  0.00000000       0.019
   0.07830478  0.11754414  0.00000000       0.037
   0.09396574  0.12658600  0.00000000       0.037
   0.10962669  0.13562786  0.00000000       0.019
   0.07830478  0.13562786  0.00000000       0.019
   0.09396574  0.14466972  0.00000000       0.037
   0.09396574  0.16275343  0.00000000       0.006
 
 k-points in reciprocal lattice and weights: KPOINTS created by Atomic Simulation Env
   0.00000000  0.00000000  0.00000000       0.003
   0.05555556  0.00000000  0.00000000       0.019
   0.11111111  0.00000000  0.00000000       0.019
   0.16666667  0.00000000  0.00000000       0.019
   0.22222222  0.00000000  0.00000000       0.019
   0.27777778  0.00000000  0.00000000       0.019
   0.33333333  0.00000000  0.00000000       0.019
   0.38888889  0.00000000  0.00000000       0.019
   0.44444444  0.00000000  0.00000000       0.019
   0.50000000  0.00000000  0.00000000       0.009
   0.05555556  0.05555556  0.00000000       0.019
   0.11111111  0.05555556  0.00000000       0.037
   0.16666667  0.05555556  0.00000000       0.037
   0.22222222  0.05555556  0.00000000       0.037
   0.27777778  0.05555556  0.00000000       0.037
   0.33333333  0.05555556  0.00000000       0.037
   0.38888889  0.05555556  0.00000000       0.037
   0.44444444  0.05555556  0.00000000       0.037
   0.11111111  0.11111111  0.00000000       0.019
   0.16666667  0.11111111  0.00000000       0.037
   0.22222222  0.11111111  0.00000000       0.037
   0.27777778  0.11111111  0.00000000       0.037
   0.33333333  0.11111111  0.00000000       0.037
   0.38888889  0.11111111  0.00000000       0.037
   0.44444444  0.11111111  0.00000000       0.019
   0.16666667  0.16666667  0.00000000       0.019
   0.22222222  0.16666667  0.00000000       0.037
   0.27777778  0.16666667  0.00000000       0.037
   0.33333333  0.16666667  0.00000000       0.037
   0.38888889  0.16666667  0.00000000       0.037
   0.22222222  0.22222222  0.00000000       0.019
   0.27777778  0.22222222  0.00000000       0.037
   0.33333333  0.22222222  0.00000000       0.037
   0.38888889  0.22222222  0.00000000       0.019
   0.27777778  0.27777778  0.00000000       0.019
   0.33333333  0.27777778  0.00000000       0.037
   0.33333333  0.33333333  0.00000000       0.006
 
 position of ions in fractional coordinates (direct lattice) 
   0.16666667  0.33333333  0.36040000
   0.83333333  0.66666667  0.50000000
   0.16666667  0.33333333  0.63960000
   0.83333333  0.66666667  0.39650200
   0.83333333  0.66666667  0.32429800
   0.16666667  0.33333333  0.53610200
   0.16666667  0.33333333  0.46389800
   0.83333333  0.66666667  0.67570200
   0.83333333  0.66666667  0.60349800
 
 position of ions in cartesian coordinates  (Angst):
  -0.00000000  1.02404395 18.02000000
   1.77369616  2.04808791 25.00000000
  -0.00000000  1.02404395 31.98000000
   1.77369616  2.04808791 19.82510000
   1.77369616  2.04808791 16.21490000
  -0.00000000  1.02404395 26.80510000
  -0.00000000  1.02404395 23.19490000
   1.77369616  2.04808791 33.78510000
   1.77369616  2.04808791 30.17490000
 


--------------------------------------------------------------------------------------------------------


 k-point  1 :   0.0000 0.0000 0.0000  plane waves:    8059
 k-point  2 :   0.0556 0.0000 0.0000  plane waves:    8047
 k-point  3 :   0.1111 0.0000 0.0000  plane waves:    7995
 k-point  4 :   0.1667 0.0000 0.0000  plane waves:    7981
 k-point  5 :   0.2222 0.0000 0.0000  plane waves:    7967
 k-point  6 :   0.2778 0.0000 0.0000  plane waves:    7949
 k-point  7 :   0.3333 0.0000 0.0000  plane waves:    7895
 k-point  8 :   0.3889 0.0000 0.0000  plane waves:    7892
 k-point  9 :   0.4444 0.0000 0.0000  plane waves:    7900
 k-point 10 :   0.5000 0.0000 0.0000  plane waves:    7892
 k-point 11 :   0.0556 0.0556 0.0000  plane waves:    7977
 k-point 12 :   0.1111 0.0556 0.0000  plane waves:    7993
 k-point 13 :   0.1667 0.0556 0.0000  plane waves:    7982
 k-point 14 :   0.2222 0.0556 0.0000  plane waves:    7962
 k-point 15 :   0.2778 0.0556 0.0000  plane waves:    7921
 k-point 16 :   0.3333 0.0556 0.0000  plane waves:    7897
 k-point 17 :   0.3889 0.0556 0.0000  plane waves:    7896
 k-point 18 :   0.4444 0.0556 0.0000  plane waves:    7906
 k-point 19 :   0.1111 0.1111 0.0000  plane waves:    7975
 k-point 20 :   0.1667 0.1111 0.0000  plane waves:    7970
 k-point 21 :   0.2222 0.1111 0.0000  plane waves:    7936
 k-point 22 :   0.2778 0.1111 0.0000  plane waves:    7914
 k-point 23 :   0.3333 0.1111 0.0000  plane waves:    7914
 k-point 24 :   0.3889 0.1111 0.0000  plane waves:    7888
 k-point 25 :   0.4444 0.1111 0.0000  plane waves:    7900
 k-point 26 :   0.1667 0.1667 0.0000  plane waves:    7935
 k-point 27 :   0.2222 0.1667 0.0000  plane waves:    7910
 k-point 28 :   0.2778 0.1667 0.0000  plane waves:    7913
 k-point 29 :   0.3333 0.1667 0.0000  plane waves:    7908
 k-point 30 :   0.3889 0.1667 0.0000  plane waves:    7908
 k-point 31 :   0.2222 0.2222 0.0000  plane waves:    7893
 k-point 32 :   0.2778 0.2222 0.0000  plane waves:    7891
 k-point 33 :   0.3333 0.2222 0.0000  plane waves:    7911
 k-point 34 :   0.3889 0.2222 0.0000  plane waves:    7894
 k-point 35 :   0.2778 0.2778 0.0000  plane waves:    7895
 k-point 36 :   0.3333 0.2778 0.0000  plane waves:    7895
 k-point 37 :   0.3333 0.3333 0.0000  plane waves:    7902

 maximum and minimum number of plane-waves per node :      8059     7888

 maximum number of plane-waves:      8059
 maximum index in each direction: 
   IXMAX=    5   IYMAX=    5   IZMAX=   75
   IXMIN=   -5   IYMIN=   -5   IZMIN=  -75

 NGX is ok and might be reduce to  22
 NGY is ok and might be reduce to  22
 NGZ is ok and might be reduce to 302

 serial   3D FFT for wavefunctions
 parallel 3D FFT for charge:
    minimum data exchange during FFTs selected (reduces bandwidth)


 total amount of memory used by VASP on root node   251029. kBytes
========================================================================

   base      :      30000. kBytes
   nonl-proj :     196890. kBytes
   fftplans  :       2737. kBytes
   grid      :      10830. kBytes
   one-center:        726. kBytes
   wavefun   :       9846. kBytes
 
     INWAV:  cpu time    0.0000: real time    0.0003
 Broyden mixing: mesh for mixing (old mesh)
   NGX = 11   NGY = 11   NGZ =151
  (NGX  = 48   NGY  = 48   NGZ  =640)
  gives a total of  18271 points

 initial charge density was supplied:
 charge density of overlapping atoms calculated
 number of electron      78.0000000 magnetization 
 keeping initial charge density in first step


--------------------------------------------------------------------------------------------------------


 Maximum index for augmentation-charges         1090 (set IRDMAX)


--------------------------------------------------------------------------------------------------------


 First call to EWALD:  gamma=   0.217
 Maximum number of real-space cells 6x 6x 1
 Maximum number of reciprocal cells 1x 1x14

 FEWALD executed in parallel
    FEWALD:  cpu time    0.0010: real time    0.0012


----------------------------------------- Iteration    1(   1)  ---------------------------------------


    POTLOK:  cpu time    0.0450: real time    0.0457
    SETDIJ:  cpu time    0.0080: real time    0.0086
     EDDAV:  cpu time    6.7720: real time    6.7828
 BZINTS: Fermi energy: 10.816299; 78.000000 electrons
         Band energy:-627.766471;  BLOECHL correction: -0.087982
       DOS:  cpu time    0.0170: real time    0.0164
    --------------------------------------------
      LOOP:  cpu time    6.8430: real time    6.8556

 eigenvalue-minimisations  :  5488
 total energy-change (2. order) : 0.4528125E+03  (-0.3228903E+04)
 number of electron      78.0000000 magnetization 
 augmentation part       78.0000000 magnetization 

 Free energy of the ion-electron system (eV)
  ---------------------------------------------------
  alpha Z        PSCENC =        62.11224770
  Ewald energy   TEWEN  =     70287.76905779
  -Hartree energ DENC   =    -76469.58806607
  -exchange      EXHF   =         0.00000000
  -V(xc)+E(xc)   XCENC  =        31.96972591
  PAW double counting   =      5772.71798181    -5528.24715085
  entropy T*S    EENTRO =         0.00000000
  eigenvalues    EBANDS =      -627.76647077
  atomic energy  EATOM  =      6923.84520817
  Solvation  Ediel_sol  =         0.00000000
  ---------------------------------------------------
  free energy    TOTEN  =       452.81253370 eV

  energy without entropy =      452.81253370  energy(sigma->0) =      452.81253370


--------------------------------------------------------------------------------------------------------




----------------------------------------- Iteration    1(   2)  ---------------------------------------


     EDDAV:  cpu time    7.5509: real time    7.5570
 BZINTS: Fermi energy:  3.280688; 78.000000 electrons
         Band energy:***********;  BLOECHL correction:  0.000000
       DOS:  cpu time    0.0050: real time    0.0052
    --------------------------------------------
      LOOP:  cpu time    7.5569: real time    7.5649

 eigenvalue-minimisations  :  6160
 total energy-change (2. order) :-0.4731548E+03  (-0.4656131E+03)
 number of electron      78.0000000 magnetization 
 augmentation part       78.0000000 magnetization 

 Free energy of the ion-electron system (eV)
  ---------------------------------------------------
  alpha Z        PSCENC =        62.11224770
  Ewald energy   TEWEN  =     70287.76905779
  -Hartree energ DENC   =    -76469.58806607
  -exchange      EXHF   =         0.00000000
  -V(xc)+E(xc)   XCENC  =        31.96972591
  PAW double counting   =      5772.71798181    -5528.24715085
  entropy T*S    EENTRO =         0.00000000
  eigenvalues    EBANDS =     -1100.92130078
  atomic energy  EATOM  =      6923.84520817
  Solvation  Ediel_sol  =         0.00000000
  ---------------------------------------------------
  free energy    TOTEN  =       -20.34229631 eV

  energy without entropy =      -20.34229631  energy(sigma->0) =      -20.34229631


--------------------------------------------------------------------------------------------------------




----------------------------------------- Iteration    1(   3)  ---------------------------------------


     EDDAV:  cpu time    7.6338: real time    7.6405
 BZINTS: Fermi energy:  1.363643; 78.000000 electrons
         Band energy:***********;  BLOECHL correction:  0.000000
       DOS:  cpu time    0.0040: real time    0.0035
    --------------------------------------------
      LOOP:  cpu time    7.6388: real time    7.6463

 eigenvalue-minimisations  :  6216
 total energy-change (2. order) :-0.4125105E+02  (-0.4092042E+02)
 number of electron      78.0000000 magnetization 
 augmentation part       78.0000000 magnetization 

 Free energy of the ion-electron system (eV)
  ---------------------------------------------------
  alpha Z        PSCENC =        62.11224770
  Ewald energy   TEWEN  =     70287.76905779
  -Hartree energ DENC   =    -76469.58806607
  -exchange      EXHF   =         0.00000000
  -V(xc)+E(xc)   XCENC  =        31.96972591
  PAW double counting   =      5772.71798181    -5528.24715085
  entropy T*S    EENTRO =         0.00000000
  eigenvalues    EBANDS =     -1142.17234795
  atomic energy  EATOM  =      6923.84520817
  Solvation  Ediel_sol  =         0.00000000
  ---------------------------------------------------
  free energy    TOTEN  =       -61.59334348 eV

  energy without entropy =      -61.59334348  energy(sigma->0) =      -61.59334348


--------------------------------------------------------------------------------------------------------




----------------------------------------- Iteration    1(   4)  ---------------------------------------


     EDDAV:  cpu time    7.6938: real time    7.7051
 BZINTS: Fermi energy:  1.364794; 78.000000 electrons
         Band energy:***********;  BLOECHL correction:  0.000000
       DOS:  cpu time    0.0030: real time    0.0039
    --------------------------------------------
      LOOP:  cpu time    7.6978: real time    7.7116

 eigenvalue-minimisations  :  6356
 total energy-change (2. order) :-0.1771024E+01  (-0.1766533E+01)
 number of electron      78.0000000 magnetization 
 augmentation part       78.0000000 magnetization 

 Free energy of the ion-electron system (eV)
  ---------------------------------------------------
  alpha Z        PSCENC =        62.11224770
  Ewald energy   TEWEN  =     70287.76905779
  -Hartree energ DENC   =    -76469.58806607
  -exchange      EXHF   =         0.00000000
  -V(xc)+E(xc)   XCENC  =        31.96972591
  PAW double counting   =      5772.71798181    -5528.24715085
  entropy T*S    EENTRO =         0.00000000
  eigenvalues    EBANDS =     -1143.94337179
  atomic energy  EATOM  =      6923.84520817
  Solvation  Ediel_sol  =         0.00000000
  ---------------------------------------------------
  free energy    TOTEN  =       -63.36436732 eV

  energy without entropy =      -63.36436732  energy(sigma->0) =      -63.36436732


--------------------------------------------------------------------------------------------------------




----------------------------------------- Iteration    1(   5)  ---------------------------------------


     EDDAV:  cpu time    7.6028: real time    7.6104
 BZINTS: Fermi energy:  1.340325; 78.000000 electrons
         Band energy:***********;  BLOECHL correction:  0.000000
       DOS:  cpu time    0.0040: real time    0.0038
    CHARGE:  cpu time    0.3389: real time    0.3390
    MIXING:  cpu time    0.0020: real time    0.0019
    --------------------------------------------
      LOOP:  cpu time    7.9498: real time    7.9615

 eigenvalue-minimisations  :  6020
 total energy-change (2. order) :-0.4355646E-01  (-0.4354073E-01)
 number of electron      78.0000005 magnetization 
 augmentation part       -8.6621700 magnetization 

 Broyden mixing:
  rms(total) = 0.15240E+01    rms(broyden)= 0.15233E+01
  rms(prec ) = 0.15655E+01
  weight for this iteration     100.00

 Free energy of the ion-electron system (eV)
  ---------------------------------------------------
  alpha Z        PSCENC =        62.11224770
  Ewald energy   TEWEN  =     70287.76905779
  -Hartree energ DENC   =    -76469.58806607
  -exchange      EXHF   =         0.00000000
  -V(xc)+E(xc)   XCENC  =        31.96972591
  PAW double counting   =      5772.71798181    -5528.24715085
  entropy T*S    EENTRO =         0.00000000
  eigenvalues    EBANDS =     -1143.98692825
  atomic energy  EATOM  =      6923.84520817
  Solvation  Ediel_sol  =         0.00000000
  ---------------------------------------------------
  free energy    TOTEN  =       -63.40792378 eV

  energy without entropy =      -63.40792378  energy(sigma->0) =      -63.40792378


--------------------------------------------------------------------------------------------------------




----------------------------------------- Iteration    1(   6)  ---------------------------------------


    POTLOK:  cpu time    0.0420: real time    0.0430
    SETDIJ:  cpu time    0.0110: real time    0.0103
     EDDAV:  cpu time    9.1906: real time    9.3150
 BZINTS: Fermi energy: -0.231861; 78.000000 electrons
         Band energy:***********;  BLOECHL correction: -0.005590
       DOS:  cpu time    0.0150: real time    0.0157
    CHARGE:  cpu time    0.3479: real time    0.3478
    MIXING:  cpu time    0.0020: real time    0.0019
    --------------------------------------------
      LOOP:  cpu time    9.6095: real time    9.7362

 eigenvalue-minimisations  :  7308
 total energy-change (2. order) : 0.3124099E+01  (-0.1036499E+02)
 number of electron      78.0000003 magnetization 
 augmentation part       -6.6529158 magnetization 

 Broyden mixing:
  rms(total) = 0.11119E+01    rms(broyden)= 0.11118E+01
  rms(prec ) = 0.11695E+01
  weight for this iteration     100.00

 eigenvalues of (default mixing * dielectric matrix)
  average eigenvalue GAMMA=   0.6107
  0.6107

 Free energy of the ion-electron system (eV)
  ---------------------------------------------------
  alpha Z        PSCENC =        62.11224770
  Ewald energy   TEWEN  =     70287.76905779
  -Hartree energ DENC   =    -76305.99777861
  -exchange      EXHF   =         0.00000000
  -V(xc)+E(xc)   XCENC  =        27.29869624
  PAW double counting   =      5429.42937975    -5188.56614154
  entropy T*S    EENTRO =         0.00000000
  eigenvalues    EBANDS =     -1296.17449435
  atomic energy  EATOM  =      6923.84520817
  Solvation  Ediel_sol  =         0.00000000
  ---------------------------------------------------
  free energy    TOTEN  =       -60.28382484 eV

  energy without entropy =      -60.28382484  energy(sigma->0) =      -60.28382484


--------------------------------------------------------------------------------------------------------




----------------------------------------- Iteration    1(   7)  ---------------------------------------


    POTLOK:  cpu time    0.0440: real time    0.0444
    SETDIJ:  cpu time    0.0090: real time    0.0084
     EDDAV:  cpu time    8.6717: real time    8.6837
 BZINTS: Fermi energy:  0.581013; 78.000000 electrons
         Band energy:***********;  BLOECHL correction:  0.000000
       DOS:  cpu time    0.0040: real time    0.0036
    CHARGE:  cpu time    0.3399: real time    0.3409
    MIXING:  cpu time    0.0020: real time    0.0019
    --------------------------------------------
      LOOP:  cpu time    9.0716: real time    9.0856

 eigenvalue-minimisations  :  7028
 total energy-change (2. order) : 0.3547967E+01  (-0.3715338E+01)
 number of electron      78.0000004 magnetization 
 augmentation part       -7.7678598 magnetization 

 Broyden mixing:
  rms(total) = 0.46838E+00    rms(broyden)= 0.46823E+00
  rms(prec ) = 0.47542E+00
  weight for this iteration     100.00

 eigenvalues of (default mixing * dielectric matrix)
  average eigenvalue GAMMA=   1.5069
  2.5126  0.5012

 Free energy of the ion-electron system (eV)
  ---------------------------------------------------
  alpha Z        PSCENC =        62.11224770
  Ewald energy   TEWEN  =     70287.76905779
  -Hartree energ DENC   =    -76405.30933349
  -exchange      EXHF   =         0.00000000
  -V(xc)+E(xc)   XCENC  =        29.27440315
  PAW double counting   =      5634.40668734    -5391.49956133
  entropy T*S    EENTRO =         0.00000000
  eigenvalues    EBANDS =     -1197.33456696
  atomic energy  EATOM  =      6923.84520817
  Solvation  Ediel_sol  =         0.00000000
  ---------------------------------------------------
  free energy    TOTEN  =       -56.73585761 eV

  energy without entropy =      -56.73585761  energy(sigma->0) =      -56.73585761


--------------------------------------------------------------------------------------------------------




----------------------------------------- Iteration    1(   8)  ---------------------------------------


    POTLOK:  cpu time    0.0410: real time    0.0419
    SETDIJ:  cpu time    0.0090: real time    0.0085
     EDDAV:  cpu time    8.3687: real time    8.3769
 BZINTS: Fermi energy:  0.324942; 78.000000 electrons
         Band energy:***********;  BLOECHL correction:  0.000000
       DOS:  cpu time    0.0030: real time    0.0032
    CHARGE:  cpu time    0.3439: real time    0.3445
    MIXING:  cpu time    0.0020: real time    0.0019
    --------------------------------------------
      LOOP:  cpu time    8.7687: real time    8.7808

 eigenvalue-minimisations  :  6496
 total energy-change (2. order) : 0.2790723E+00  (-0.3831216E+00)
 number of electron      78.0000003 magnetization 
 augmentation part       -7.4957919 magnetization 

 Broyden mixing:
  rms(total) = 0.12899E+00    rms(broyden)= 0.12895E+00
  rms(prec ) = 0.13334E+00
  weight for this iteration     100.00

 eigenvalues of (default mixing * dielectric matrix)
  average eigenvalue GAMMA=   1.3198
  0.4858  1.0734  2.4003

 Free energy of the ion-electron system (eV)
  ---------------------------------------------------
  alpha Z        PSCENC =        62.11224770
  Ewald energy   TEWEN  =     70287.76905779
  -Hartree energ DENC   =    -76388.91050849
  -exchange      EXHF   =         0.00000000
  -V(xc)+E(xc)   XCENC  =        28.37386372
  PAW double counting   =      5577.26009186    -5334.39402056
  entropy T*S    EENTRO =         0.00000000
  eigenvalues    EBANDS =     -1212.51272549
  atomic energy  EATOM  =      6923.84520817
  Solvation  Ediel_sol  =         0.00000000
  ---------------------------------------------------
  free energy    TOTEN  =       -56.45678529 eV

  energy without entropy =      -56.45678529  energy(sigma->0) =      -56.45678529


--------------------------------------------------------------------------------------------------------




----------------------------------------- Iteration    1(   9)  ---------------------------------------


    POTLOK:  cpu time    0.0420: real time    0.0424
    SETDIJ:  cpu time    0.0080: real time    0.0087
     EDDAV:  cpu time    7.9458: real time    7.9544
 BZINTS: Fermi energy:  0.570537; 78.000000 electrons
         Band energy:***********;  BLOECHL correction:  0.000000
       DOS:  cpu time    0.0030: real time    0.0036
    CHARGE:  cpu time    0.3559: real time    0.3554
    MIXING:  cpu time    0.0020: real time    0.0025
    --------------------------------------------
      LOOP:  cpu time    8.3577: real time    8.3698

 eigenvalue-minimisations  :  6104
 total energy-change (2. order) : 0.3999349E-01  (-0.2854511E-01)
 number of electron      78.0000003 magnetization 
 augmentation part       -7.5759367 magnetization 

 Broyden mixing:
  rms(total) = 0.42441E-01    rms(broyden)= 0.42435E-01
  rms(prec ) = 0.43567E-01
  weight for this iteration     100.00

 eigenvalues of (default mixing * dielectric matrix)
  average eigenvalue GAMMA=   1.2327
  2.4357  1.2879  0.4887  0.7186

 Free energy of the ion-electron system (eV)
  ---------------------------------------------------
  alpha Z        PSCENC =        62.11224770
  Ewald energy   TEWEN  =     70287.76905779
  -Hartree energ DENC   =    -76398.60909190
  -exchange      EXHF   =         0.00000000
  -V(xc)+E(xc)   XCENC  =        28.64146279
  PAW double counting   =      5597.95673443    -5354.84186838
  entropy T*S    EENTRO =         0.00000000
  eigenvalues    EBANDS =     -1203.29054241
  atomic energy  EATOM  =      6923.84520817
  Solvation  Ediel_sol  =         0.00000000
  ---------------------------------------------------
  free energy    TOTEN  =       -56.41679180 eV

  energy without entropy =      -56.41679180  energy(sigma->0) =      -56.41679180


--------------------------------------------------------------------------------------------------------




----------------------------------------- Iteration    1(  10)  ---------------------------------------


    POTLOK:  cpu time    0.0420: real time    0.0430
    SETDIJ:  cpu time    0.0090: real time    0.0089
     EDDAV:  cpu time    8.5187: real time    8.5290
 BZINTS: Fermi energy:  0.586712; 78.000000 electrons
         Band energy:***********;  BLOECHL correction:  0.000000
       DOS:  cpu time    0.0040: real time    0.0036
    CHARGE:  cpu time    0.3509: real time    0.3510
    MIXING:  cpu time    0.0020: real time    0.0019
    --------------------------------------------
      LOOP:  cpu time    8.9276: real time    8.9404

 eigenvalue-minimisations  :  6916
 total energy-change (2. order) : 0.2654761E-02  (-0.3995610E-02)
 number of electron      78.0000004 magnetization 
 augmentation part       -7.5947825 magnetization 

 Broyden mixing:
  rms(total) = 0.18538E-01    rms(broyden)= 0.18532E-01
  rms(prec ) = 0.19149E-01
  weight for this iteration     100.00

 eigenvalues of (default mixing * dielectric matrix)
  average eigenvalue GAMMA=   1.2604
  2.5426  1.7633  0.9651  0.4902  0.5410

 Free energy of the ion-electron system (eV)
  ---------------------------------------------------
  alpha Z        PSCENC =        62.11224770
  Ewald energy   TEWEN  =     70287.76905779
  -Hartree energ DENC   =    -76401.05633031
  -exchange      EXHF   =         0.00000000
  -V(xc)+E(xc)   XCENC  =        28.72122726
  PAW double counting   =      5604.41538547    -5361.23808763
  entropy T*S    EENTRO =         0.00000000
  eigenvalues    EBANDS =     -1200.98284549
  atomic energy  EATOM  =      6923.84520817
  Solvation  Ediel_sol  =         0.00000000
  ---------------------------------------------------
  free energy    TOTEN  =       -56.41413704 eV

  energy without entropy =      -56.41413704  energy(sigma->0) =      -56.41413704


--------------------------------------------------------------------------------------------------------




----------------------------------------- Iteration    1(  11)  ---------------------------------------


    POTLOK:  cpu time    0.0430: real time    0.0427
    SETDIJ:  cpu time    0.0080: real time    0.0086
     EDDAV:  cpu time    7.9938: real time    8.0020
 BZINTS: Fermi energy:  0.618342; 78.000000 electrons
         Band energy:***********;  BLOECHL correction:  0.000000
       DOS:  cpu time    0.0040: real time    0.0036
    CHARGE:  cpu time    0.3459: real time    0.3458
    MIXING:  cpu time    0.0020: real time    0.0019
    --------------------------------------------
      LOOP:  cpu time    8.3967: real time    8.4079

 eigenvalue-minimisations  :  6132
 total energy-change (2. order) : 0.6105064E-03  (-0.7868514E-03)
 number of electron      78.0000004 magnetization 
 augmentation part       -7.5976143 magnetization 

 Broyden mixing:
  rms(total) = 0.77277E-02    rms(broyden)= 0.77258E-02
  rms(prec ) = 0.80834E-02
  weight for this iteration     100.00

 eigenvalues of (default mixing * dielectric matrix)
  average eigenvalue GAMMA=   1.2664
  2.5359  1.6885  1.3943  0.9806  0.4905  0.5086

 Free energy of the ion-electron system (eV)
  ---------------------------------------------------
  alpha Z        PSCENC =        62.11224770
  Ewald energy   TEWEN  =     70287.76905779
  -Hartree energ DENC   =    -76403.94550967
  -exchange      EXHF   =         0.00000000
  -V(xc)+E(xc)   XCENC  =        28.77018234
  PAW double counting   =      5607.14462419    -5363.95056076
  entropy T*S    EENTRO =         0.00000000
  eigenvalues    EBANDS =     -1198.15877631
  atomic energy  EATOM  =      6923.84520817
  Solvation  Ediel_sol  =         0.00000000
  ---------------------------------------------------
  free energy    TOTEN  =       -56.41352654 eV

  energy without entropy =      -56.41352654  energy(sigma->0) =      -56.41352654


--------------------------------------------------------------------------------------------------------




----------------------------------------- Iteration    1(  12)  ---------------------------------------


    POTLOK:  cpu time    0.0430: real time    0.0431
    SETDIJ:  cpu time    0.0080: real time    0.0088
     EDDAV:  cpu time    7.6428: real time    7.6517
 BZINTS: Fermi energy:  0.627002; 78.000000 electrons
         Band energy:***********;  BLOECHL correction:  0.000000
       DOS:  cpu time    0.0040: real time    0.0036
    CHARGE:  cpu time    0.3459: real time    0.3464
    MIXING:  cpu time    0.0020: real time    0.0020
    --------------------------------------------
      LOOP:  cpu time    8.0458: real time    8.0607

 eigenvalue-minimisations  :  5908
 total energy-change (2. order) : 0.1576130E-03  (-0.1143087E-03)
 number of electron      78.0000004 magnetization 
 augmentation part       -7.5935311 magnetization 

 Broyden mixing:
  rms(total) = 0.31325E-02    rms(broyden)= 0.31319E-02
  rms(prec ) = 0.34933E-02
  weight for this iteration     100.00

 eigenvalues of (default mixing * dielectric matrix)
  average eigenvalue GAMMA=   1.3133
  2.3394  2.3394  1.5749  1.0571  0.8833  0.4915  0.5073

 Free energy of the ion-electron system (eV)
  ---------------------------------------------------
  alpha Z        PSCENC =        62.11224770
  Ewald energy   TEWEN  =     70287.76905779
  -Hartree energ DENC   =    -76404.66942971
  -exchange      EXHF   =         0.00000000
  -V(xc)+E(xc)   XCENC  =        28.76209789
  PAW double counting   =      5604.99088342    -5361.83191221
  entropy T*S    EENTRO =         0.00000000
  eigenvalues    EBANDS =     -1197.39152198
  atomic energy  EATOM  =      6923.84520817
  Solvation  Ediel_sol  =         0.00000000
  ---------------------------------------------------
  free energy    TOTEN  =       -56.41336892 eV

  energy without entropy =      -56.41336892  energy(sigma->0) =      -56.41336892


--------------------------------------------------------------------------------------------------------




----------------------------------------- Iteration    1(  13)  ---------------------------------------


    POTLOK:  cpu time    0.0400: real time    0.0429
    SETDIJ:  cpu time    0.0080: real time    0.0086
     EDDAV:  cpu time    7.1849: real time    7.1931
 BZINTS: Fermi energy:  0.643797; 78.000000 electrons
         Band energy:***********;  BLOECHL correction:  0.000000
       DOS:  cpu time    0.0040: real time    0.0036
    CHARGE:  cpu time    0.3609: real time    0.3615
    MIXING:  cpu time    0.0030: real time    0.0026
    --------------------------------------------
      LOOP:  cpu time    7.6028: real time    7.6155

 eigenvalue-minimisations  :  5712
 total energy-change (2. order) : 0.6101981E-04  (-0.2405747E-04)
 number of electron      78.0000004 magnetization 
 augmentation part       -7.5932722 magnetization 

 Broyden mixing:
  rms(total) = 0.16228E-02    rms(broyden)= 0.16222E-02
  rms(prec ) = 0.19225E-02
  weight for this iteration     100.00

 eigenvalues of (default mixing * dielectric matrix)
  average eigenvalue GAMMA=   1.3246
  2.5605  2.5605  1.3625  1.3625  0.8758  0.8758  0.4911  0.5079

 Free energy of the ion-electron system (eV)
  ---------------------------------------------------
  alpha Z        PSCENC =        62.11224770
  Ewald energy   TEWEN  =     70287.76905779
  -Hartree energ DENC   =    -76406.31919570
  -exchange      EXHF   =         0.00000000
  -V(xc)+E(xc)   XCENC  =        28.76732400
  PAW double counting   =      5603.99659759    -5360.85575096
  entropy T*S    EENTRO =         0.00000000
  eigenvalues    EBANDS =     -1195.72879651
  atomic energy  EATOM  =      6923.84520817
  Solvation  Ediel_sol  =         0.00000000
  ---------------------------------------------------
  free energy    TOTEN  =       -56.41330790 eV

  energy without entropy =      -56.41330790  energy(sigma->0) =      -56.41330790


--------------------------------------------------------------------------------------------------------




----------------------------------------- Iteration    1(  14)  ---------------------------------------


    POTLOK:  cpu time    0.0420: real time    0.0428
    SETDIJ:  cpu time    0.0090: real time    0.0083
     EDDAV:  cpu time    7.1099: real time    7.1201
[...]
    --------------------------------------------
      LOOP:  cpu time    8.8067: real time    8.8259

 Broyden mixing:
  rms(total) = 0.93879E-05    rms(broyden)= 0.93857E-05
  rms(prec ) = 0.11900E-04
  weight for this iteration     100.00

 eigenvalues of (default mixing * dielectric matrix)
  average eigenvalue GAMMA=   2.0326
  7.1508  7.1508  3.6548  3.6548  2.3178  2.3178  1.5548  1.5548  1.2155  1.2155
  0.9453  0.9453  0.8907  0.8907  0.7572  0.8463  0.5315  0.5244  0.5006

 Free energy of the ion-electron system (eV)
  ---------------------------------------------------
  -Hartree energ DENC   =        -0.76882476
  -V(xc)+E(xc)   XCENC  =         0.00970165
  PAW double counting   =         0.01801805       -0.01775413
  entropy T*S    EENTRO =         0.00000000
  eigenvalues    EBANDS =        -0.17884147
  ---------------------------------------------------
  free energy    TOTEN  =        -0.93770066 eV

  energy without entropy =       -0.93770066


----------------------------------------- Iteration    3(  22)  ---------------------------------------


   POT+DIJ:  cpu time    0.1050: real time    0.1049
    HAMIL1:  cpu time    1.4968: real time    1.4985
    LRDIAG:  cpu time    0.1700: real time    0.1709
    LRDIIS:  cpu time    6.3190: real time    6.3264
    LRDIAG:  cpu time    0.1630: real time    0.1633
    MIXING:  cpu time    0.0030: real time    0.0034
    --------------------------------------------
      LOOP:  cpu time    9.0136: real time    9.0272

 Broyden mixing:
  rms(total) = 0.62365E-05    rms(broyden)= 0.62355E-05
  rms(prec ) = 0.78872E-05
  weight for this iteration     100.00

 eigenvalues of (default mixing * dielectric matrix)
  average eigenvalue GAMMA=   2.1138
  7.5451  7.5451  3.9858  3.9858  2.5590  2.5590  1.8924  1.8924  1.2713  1.2713
  0.9248  0.9248  0.9805  0.9805  0.9137  0.7569  0.7317  0.5315  0.5244  0.5007

 Free energy of the ion-electron system (eV)
  ---------------------------------------------------
  -Hartree energ DENC   =        -0.76882913
  -V(xc)+E(xc)   XCENC  =         0.00970082
  PAW double counting   =         0.01801641       -0.01775251
  entropy T*S    EENTRO =         0.00000000
  eigenvalues    EBANDS =        -0.17879233
  ---------------------------------------------------
  free energy    TOTEN  =        -0.93765673 eV

  energy without entropy =       -0.93765673


----------------------------------------- Iteration    3(  23)  ---------------------------------------


   POT+DIJ:  cpu time    0.1040: real time    0.1045
    HAMIL1:  cpu time    1.4948: real time    1.4963
    LRDIAG:  cpu time    0.1740: real time    0.1744
    LRDIIS:  cpu time    5.8751: real time    5.8808
    LRDIAG:  cpu time    0.1620: real time    0.1628
    MIXING:  cpu time    0.0030: real time    0.0034
    --------------------------------------------
      LOOP:  cpu time    8.5557: real time    8.5668

 Broyden mixing:
  rms(total) = 0.34549E-05    rms(broyden)= 0.34542E-05
  rms(prec ) = 0.40283E-05
  weight for this iteration     100.00

 eigenvalues of (default mixing * dielectric matrix)
  average eigenvalue GAMMA=   2.1843
  7.9507  7.9507  4.4982  4.1671  2.7491  2.7491  1.9556  1.9556  1.5637  1.2858
  1.2858  0.9300  0.9300  0.9667  0.9482  0.9482  0.7567  0.7228  0.5315  0.5244
  0.5007

 Free energy of the ion-electron system (eV)
  ---------------------------------------------------
  -Hartree energ DENC   =        -0.76883057
  -V(xc)+E(xc)   XCENC  =         0.00969975
  PAW double counting   =         0.01801922       -0.01775536
  entropy T*S    EENTRO =         0.00000000
  eigenvalues    EBANDS =        -0.17873442
  ---------------------------------------------------
  free energy    TOTEN  =        -0.93760138 eV

  energy without entropy =       -0.93760138


----------------------------------------- Iteration    3(  24)  ---------------------------------------


   POT+DIJ:  cpu time    0.1050: real time    0.1057
    HAMIL1:  cpu time    1.4968: real time    1.4972
    LRDIAG:  cpu time    0.1700: real time    0.1703
    LRDIIS:  cpu time    5.8751: real time    5.8774
    LRDIAG:  cpu time    0.1640: real time    0.1643
    MIXING:  cpu time    0.0030: real time    0.0035
    --------------------------------------------
      LOOP:  cpu time    8.5607: real time    8.5676

 Broyden mixing:
  rms(total) = 0.15937E-05    rms(broyden)= 0.15931E-05
  rms(prec ) = 0.17901E-05
  weight for this iteration     100.00

 eigenvalues of (default mixing * dielectric matrix)
  average eigenvalue GAMMA=   2.2234
  8.3390  8.3390  5.1962  4.0173  2.8241  2.8241  2.1097  2.1097  1.8168  1.2764
  1.2764  1.0925  0.9304  0.9304  0.9385  0.9385  0.9211  0.7568  0.7215  0.5315
  0.5244  0.5007

 Free energy of the ion-electron system (eV)
  ---------------------------------------------------
  -Hartree energ DENC   =        -0.76882764
  -V(xc)+E(xc)   XCENC  =         0.00969913
  PAW double counting   =         0.01802134       -0.01775746
  entropy T*S    EENTRO =         0.00000000
  eigenvalues    EBANDS =        -0.17872778
  ---------------------------------------------------
  free energy    TOTEN  =        -0.93759241 eV

  energy without entropy =       -0.93759241


----------------------------------------- Iteration    3(  25)  ---------------------------------------


   POT+DIJ:  cpu time    0.1050: real time    0.1052
    HAMIL1:  cpu time    1.4988: real time    1.4998
    LRDIAG:  cpu time    0.1710: real time    0.1711
    LRDIIS:  cpu time    5.8301: real time    5.8337
    LRDIAG:  cpu time    0.1640: real time    0.1633
    MIXING:  cpu time    0.0040: real time    0.0038
    --------------------------------------------
      LOOP:  cpu time    8.5147: real time    8.5215

 Broyden mixing:
  rms(total) = 0.73254E-06    rms(broyden)= 0.73242E-06
  rms(prec ) = 0.81651E-06
  weight for this iteration     100.00

 eigenvalues of (default mixing * dielectric matrix)
  average eigenvalue GAMMA=   2.2738
  9.2499  7.9886  5.5888  4.1417  2.9984  2.9984  2.1232  2.1232  1.9905  1.8031
  1.2768  1.2768  0.9293  0.9293  1.0061  0.9519  0.9519  0.9331  0.7568  0.7222
  0.5315  0.5244  0.5007

 Free energy of the ion-electron system (eV)
  ---------------------------------------------------
  -Hartree energ DENC   =        -0.76882867
  -V(xc)+E(xc)   XCENC  =         0.00969909
  PAW double counting   =         0.01801993       -0.01775605
  entropy T*S    EENTRO =         0.00000000
  eigenvalues    EBANDS =        -0.17869043
  ---------------------------------------------------
  free energy    TOTEN  =        -0.93755613 eV

  energy without entropy =       -0.93755613


------------------------ aborting loop because EDIFF is reached ----------------------------------------


 change of polarisation eV/A/(eV/A) component  3 :     0.000     0.000     1.841
 dielectric tensor                  component  3 :     0.000     0.000     1.611


--------------------------------------------------------------------------------------------------------


    FORLOC:  cpu time    0.0040: real time    0.0039
    FORNL :  cpu time    1.1118: real time    1.1123
    STRESS:  cpu time    4.8003: real time    4.8021
    FORCOR:  cpu time    0.0440: real time    0.0446
    OFIELD:  cpu time    0.0010: real time    0.0003

  Hirshfeld charges:
            ion         q(e)     
   ------------------------------
      1     Mo          0.242
      2     Mo          0.241
      3     Mo          0.242
      4     Te         -0.121
      5     Te         -0.121
      6     Te         -0.120
      7     Te         -0.120
      8     Te         -0.121
      9     Te         -0.121

  Tkatchenko/Scheffler method for vdW energy calculation
  ---------------------------------------------------------------------------------------------

  Parameters of vdW forcefield:
            C6ts              R0ts           ALPHAts        RELVOL
            (au)              (au)            (au)                
   ---------------------------------------------------------------
   Mo       1114.306          4.156         92.024          1.041
   Mo       1118.972          4.159         92.216          1.043
   Mo       1114.306          4.156         92.024          1.041
   Te        411.617          4.241         38.385          1.020
   Te        404.012          4.228         38.029          1.010
   Te        411.618          4.241         38.385          1.020
   Te        411.618          4.241         38.385          1.020
   Te        404.012          4.228         38.029          1.010
   Te        411.616          4.241         38.385          1.020
  Edisp (eV):   -2.87739
    FORVDW:  cpu time    0.3679: real time    0.3681
    FORLOC:  cpu time    0.0030: real time    0.0038
    FORNL :  cpu time    1.1108: real time    1.1109
    STRESS:  cpu time    4.7883: real time    4.7931
    FORCOR:  cpu time    0.0420: real time    0.0426
    OFIELD:  cpu time    0.0010: real time    0.0003

  Hirshfeld charges:
            ion         q(e)     
   ------------------------------
      1     Mo          0.242
      2     Mo          0.241
      3     Mo          0.242
      4     Te         -0.121
      5     Te         -0.121
      6     Te         -0.120
      7     Te         -0.120
      8     Te         -0.121
      9     Te         -0.121

  Tkatchenko/Scheffler method for vdW energy calculation
  ---------------------------------------------------------------------------------------------

  Parameters of vdW forcefield:
            C6ts              R0ts           ALPHAts        RELVOL
            (au)              (au)            (au)                
   ---------------------------------------------------------------
   Mo       1114.306          4.156         92.024          1.041
   Mo       1118.972          4.159         92.216          1.043
   Mo       1114.306          4.156         92.024          1.041
   Te        411.616          4.241         38.385          1.020
   Te        404.012          4.228         38.029          1.010
   Te        411.618          4.241         38.385          1.020
   Te        411.618          4.241         38.385          1.020
   Te        404.012          4.228         38.029          1.010
   Te        411.617          4.241         38.385          1.020
  Edisp (eV):   -2.87739
    FORVDW:  cpu time    0.3629: real time    0.3629
    FORNLD:  cpu time    3.8304: real time    3.8339

 PIEZOELECTRIC TENSOR FIELD DIRECTION 3  (e Angst)
 -----------------------------------------------------------------------------
    -0.00013  0.00000  0.00000           (  0.00000  0.00000  0.00000)
    -0.00000 -0.00013  0.00000           (  0.00000  0.00000  0.00000)
     0.00000  0.00000 -0.00030           (  0.00000  0.00000 -0.00000)

 PIEZOELECTRIC TENSOR FIELD DIRECTION 3  (C/m^2)
 -----------------------------------------------------------------------------
    -0.00000  0.00000  0.00000
    -0.00000 -0.00000  0.00000
     0.00000  0.00000 -0.00001


      POSITION         DIRECTION 3           BORN EFFECTIVE CHARGE    (rigid.aug.   ionic)
 -----------------------------------------------------------------------------------------
     -0.00000      1.02404     18.02000    -0.00000  0.00000-25.91480 (  0.16213 14.00000)
      1.77370      2.04809     25.00000    -0.00000 -0.00000 -0.12513 (  0.16200 14.00000)
     -0.00000      1.02404     31.98000     0.00000 -0.00000-25.91480 (  0.16213 14.00000)
      1.77370      2.04809     19.82510     0.00000 -0.00000 -0.59082 (  1.18462  6.00000)
      1.77370      2.04809     16.21490     0.00000  0.00000 -0.03807 (  1.18399  6.00000)
     -0.00000      1.02404     26.80510     0.00000  0.00000  0.24791 (  1.18455  6.00000)
     -0.00000      1.02404     23.19490    -0.00000 -0.00000  0.24791 (  1.18455  6.00000)
      1.77370      2.04809     33.78510     0.00000 -0.00000 -0.03807 (  1.18399  6.00000)
      1.77370      2.04809     30.17490    -0.00000  0.00000 -0.59082 (  1.18462  6.00000)
 -----------------------------------------------------------------------------------------
    total drift (improves with k-points):   0.00000  0.00000-52.71669




--------------------------------------------------------------------------------------------------------


  LATTYP: Found a hexagonal cell.
 ALAT       =     3.5473923118
 C/A-ratio  =    14.0948605637
  
  Lattice vectors:
  
 A1 = (   3.5473923118,   0.0000000000,   0.0000000000)
 A2 = (  -1.7736961559,   3.0721318592,   0.0000000000)
 A3 = (   0.0000000000,   0.0000000000,  50.0000000000)


Analysis of symmetry for initial positions (statically):
=====================================================================
 Subroutine PRICEL returns:
 Original cell was already a primitive cell.
 

 Routine SETGRP: Setting up the symmetry group for a 
 hexagonal supercell.


 Subroutine GETGRP returns: Found 12 space group operations
 (whereof  4 operations were pure point group operations)
 out of a pool of 24 trial point group operations.


The static configuration has the point symmetry C_2v.
 The point group associated with its full space group is D_3h.


Analysis of symmetry for dynamics (positions and initial velocities):
=====================================================================
 Subroutine PRICEL returns:
 Original cell was already a primitive cell.
 

 Routine SETGRP: Setting up the symmetry group for a 
 hexagonal supercell.


 Subroutine GETGRP returns: Found 12 space group operations
 (whereof  4 operations were pure point group operations)
 out of a pool of 24 trial point group operations.


The dynamic configuration has the point symmetry C_2v.
 The point group associated with its full space group is D_3h.


 Subroutine INISYM returns: Found 12 space group operations
 (whereof  4 operations are pure point group operations),
 and found     1 'primitive' translations



 MACROSCOPIC STATIC DIELECTRIC TENSOR (including local field effects in DFT)
 ------------------------------------------------------
           8.965294    -0.000000     0.000000
           0.000000     8.965294     0.000000
           0.000000     0.000000     1.611355
 ------------------------------------------------------



--------------------------------------------------------------------------------------------------------


  LATTYP: Found a hexagonal cell.
 ALAT       =     3.5473923118
 C/A-ratio  =    14.0948605637
  
  Lattice vectors:
  
 A1 = (   3.5473923118,   0.0000000000,   0.0000000000)
 A2 = (  -1.7736961559,   3.0721318592,   0.0000000000)
 A3 = (   0.0000000000,   0.0000000000,  50.0000000000)


Analysis of symmetry for initial positions (statically):
=====================================================================
 Subroutine PRICEL returns:
 Original cell was already a primitive cell.
 

 Routine SETGRP: Setting up the symmetry group for a 
 hexagonal supercell.


 Subroutine GETGRP returns: Found 12 space group operations
 (whereof  4 operations were pure point group operations)
 out of a pool of 24 trial point group operations.


The static configuration has the point symmetry C_2v.
 The point group associated with its full space group is D_3h.


Analysis of symmetry for dynamics (positions and initial velocities):
=====================================================================
 Subroutine PRICEL returns:
 Original cell was already a primitive cell.
 

 Routine SETGRP: Setting up the symmetry group for a 
 hexagonal supercell.


 Subroutine GETGRP returns: Found 12 space group operations
 (whereof  4 operations were pure point group operations)
 out of a pool of 24 trial point group operations.


The dynamic configuration has the point symmetry C_2v.
 The point group associated with its full space group is D_3h.


 Subroutine INISYM returns: Found 12 space group operations
 (whereof  4 operations are pure point group operations),
 and found     1 'primitive' translations



--------------------------------------------------------------------------------------------------------




 MACROSCOPIC STATIC DIELECTRIC TENSOR (including local field effects in DFT)
 ------------------------------------------------------
           8.965294    -0.000000     0.000000
           0.000000     8.965294     0.000000
           0.000000     0.000000     1.611355
 ------------------------------------------------------


 PIEZOELECTRIC TENSOR  for field in x, y, z        (e  Angst)
          XX          YY          ZZ          XY          YZ          ZX
  --------------------------------------------------------------------------------
  x    -0.00666     0.00359    -0.00001    -1.61408     0.00000     0.00000
  y    -1.62387     1.63056     0.00143     0.00000     0.00000     0.00000
  z    -0.00013    -0.00013    -0.00030    -0.00000     0.00000     0.00000

 PIEZOELECTRIC TENSOR  for field in x, y, z        (C/m^2)
          XX          YY          ZZ          XY          YZ          ZX
  --------------------------------------------------------------------------------
  x     0.00000     0.00000     0.00000    -0.04765     0.00000     0.00000
  y    -0.04765     0.04765    -0.00000     0.00000     0.00000     0.00000
  z     0.00000     0.00000     0.00000     0.00000    -0.00000     0.00000
 
 BORN EFFECTIVE CHARGES (in e, cummulative output)
 -------------------------------------------------
 ion    1
    1    -3.20699    -0.00083     0.00004
    2    -0.00000    -3.20736    -0.00012
    3    -0.00000     0.00000   -25.91480
 ion    2
    1    -3.18616     0.00089     0.00000
    2     0.00000    -3.18596     0.00000
    3    -0.00000    -0.00000    -0.12513
 ion    3
    1    -3.20699    -0.00083    -0.00004
    2     0.00000    -3.20736     0.00012
    3     0.00000    -0.00000   -25.91480
 ion    4
    1     1.59321    -0.00030    -0.00048
    2     0.00000     1.59351     0.00132
    3     0.00000    -0.00000    -0.59082
 ion    5
    1     1.60212    -0.00033     0.00025
    2    -0.00000     1.60228    -0.00073
    3     0.00000     0.00000    -0.03807
 ion    6
    1     1.58864     0.00031    -0.00047
    2     0.00000     1.58833     0.00124
    3     0.00000     0.00000     0.24791
 ion    7
    1     1.58864     0.00031     0.00047
    2     0.00000     1.58833    -0.00124
    3    -0.00000    -0.00000     0.24791
 ion    8
    1     1.60212    -0.00033    -0.00025
    2    -0.00000     1.60228     0.00073
    3     0.00000    -0.00000    -0.03807
 ion    9
    1     1.59321    -0.00030     0.00048
    2     0.00000     1.59351    -0.00132
    3    -0.00000     0.00000    -0.59082


--------------------------------------------------------------------------------------------------------


 writing wavefunctions
     LOOP+:  cpu time 2387.6890: real time 2391.7296
    4ORBIT:  cpu time    0.0000: real time    0.0000
 BZINTS: Fermi energy:  0.692169; 78.000000 electrons
         Band energy:***********;  BLOECHL correction:  0.000000

 total amount of memory used by VASP on root node   251029. kBytes
========================================================================

   base      :      30000. kBytes
   nonl-proj :     196890. kBytes
   fftplans  :       2737. kBytes
   grid      :      10830. kBytes
   one-center:        726. kBytes
   wavefun   :       9846. kBytes
 
  
  
 General timing and accounting informations for this job:
 ========================================================
  
                  Total CPU time used (sec):     2391.027
                            User time (sec):     2350.608
                          System time (sec):       40.419
                         Elapsed time (sec):     2396.527
  
                   Maximum memory used (kb):     1178320.
                   Average memory used (kb):           0.
  
                          Minor page faults:      6407550
                          Major page faults:           11
                 Voluntary context switches:         6288
