  12  12   0   0
  0.4540857E+02  0.3547392E-09  0.3547392E-09  0.5000000E-08  0.5000000E-15
  1.000000000000000E-004
  CAR 
 unknown system                          
     14.75985308    -62.00453041  301      2.54152204      1.00000000
    -62.005  0.0000E+00  0.0000E+00
    -61.749  0.0000E+00  0.0000E+00
    -61.493  0.0000E+00  0.0000E+00
    -61.237  0.0000E+00  0.0000E+00
    -60.981  0.0000E+00  0.0000E+00
    -60.725  0.0000E+00  0.0000E+00
    -60.469  0.0000E+00  0.0000E+00
    -60.213  0.0000E+00  0.0000E+00
    -59.957  0.0000E+00  0.0000E+00
    -59.702  0.0000E+00  0.0000E+00
    -59.446  0.0000E+00  0.0000E+00
    -59.190  0.0000E+00  0.0000E+00
    -58.934  0.0000E+00  0.0000E+00
    -58.678  0.0000E+00  0.0000E+00
    -58.422  0.0000E+00  0.8000E+01
    -58.166  0.0000E+00  0.8000E+01
    -57.910  0.0000E+00  0.8000E+01
    -57.655  0.0000E+00  0.8000E+01
    -57.399  0.0000E+00  0.8000E+01
    -57.143  0.0000E+00  0.8000E+01
    -56.887  0.0000E+00  0.8000E+01
    -56.631  0.0000E+00  0.8000E+01
    -56.375  0.0000E+00  0.8000E+01
    -56.119  0.0000E+00  0.8000E+01
    -55.863  0.0000E+00  0.8000E+01
    -55.607  0.0000E+00  0.8000E+01
    -55.352  0.0000E+00  0.8000E+01
    -55.096  0.0000E+00  0.8000E+01
    -54.840  0.0000E+00  0.8000E+01
    -54.584  0.0000E+00  0.8000E+01
    -54.328  0.0000E+00  0.8000E+01
    -54.072  0.0000E+00  0.8000E+01
    -53.816  0.0000E+00  0.8000E+01
    -53.560  0.0000E+00  0.8000E+01
    -53.305  0.0000E+00  0.8000E+01
    -53.049  0.0000E+00  0.8000E+01
    -52.793  0.0000E+00  0.8000E+01
    -52.537  0.0000E+00  0.8000E+01
    -52.281  0.0000E+00  0.8000E+01
    -52.025  0.0000E+00  0.8000E+01
    -51.769  0.0000E+00  0.8000E+01
    -51.513  0.0000E+00  0.8000E+01
    -51.258  0.0000E+00  0.8000E+01
    -51.002  0.0000E+00  0.8000E+01
    -50.746  0.0000E+00  0.8000E+01
    -50.490  0.0000E+00  0.8000E+01
    -50.234  0.0000E+00  0.8000E+01
    -49.978  0.0000E+00  0.8000E+01
    -49.722  0.0000E+00  0.8000E+01
    -49.466  0.0000E+00  0.8000E+01
    -49.210  0.0000E+00  0.8000E+01
    -48.955  0.0000E+00  0.8000E+01
    -48.699  0.0000E+00  0.8000E+01
    -48.443  0.0000E+00  0.8000E+01
    -48.187  0.0000E+00  0.8000E+01
    -47.931  0.0000E+00  0.8000E+01
    -47.675  0.0000E+00  0.8000E+01
    -47.419  0.0000E+00  0.8000E+01
    -47.163  0.0000E+00  0.8000E+01
    -46.908  0.0000E+00  0.8000E+01
    -46.652  0.0000E+00  0.8000E+01
    -46.396  0.0000E+00  0.8000E+01
    -46.140  0.0000E+00  0.8000E+01
    -45.884  0.0000E+00  0.8000E+01
    -45.628  0.0000E+00  0.8000E+01
    -45.372  0.0000E+00  0.8000E+01
    -45.116  0.0000E+00  0.8000E+01
    -44.860  0.0000E+00  0.8000E+01
    -44.605  0.0000E+00  0.8000E+01
    -44.349  0.0000E+00  0.8000E+01
    -44.093  0.0000E+00  0.8000E+01
    -43.837  0.0000E+00  0.8000E+01
    -43.581  0.0000E+00  0.8000E+01
    -43.325  0.0000E+00  0.8000E+01
    -43.069  0.0000E+00  0.8000E+01
    -42.813  0.0000E+00  0.8000E+01
    -42.558  0.0000E+00  0.8000E+01
    -42.302  0.0000E+00  0.8000E+01
    -42.046  0.0000E+00  0.8000E+01
    -41.790  0.0000E+00  0.8000E+01
    -41.534  0.0000E+00  0.8000E+01
    -41.278  0.0000E+00  0.8000E+01
    -41.022  0.0000E+00  0.8000E+01
    -40.766  0.0000E+00  0.8000E+01
    -40.511  0.0000E+00  0.8000E+01
    -40.255  0.0000E+00  0.8000E+01
    -39.999  0.0000E+00  0.8000E+01
    -39.743  0.0000E+00  0.8000E+01
    -39.487  0.0000E+00  0.8000E+01
    -39.231  0.0000E+00  0.8000E+01
    -38.975  0.0000E+00  0.8000E+01
    -38.719  0.0000E+00  0.8000E+01
    -38.463  0.0000E+00  0.8000E+01
    -38.208  0.0000E+00  0.8000E+01
    -37.952  0.0000E+00  0.8000E+01
    -37.696  0.0000E+00  0.8000E+01
    -37.440  0.0000E+00  0.8000E+01
    -37.184  0.0000E+00  0.8000E+01
    -36.928  0.0000E+00  0.8000E+01
    -36.672  0.0000E+00  0.8000E+01
    -36.416  0.0000E+00  0.8000E+01
    -36.161  0.0000E+00  0.8000E+01
    -35.905  0.0000E+00  0.8000E+01
    -35.649  0.0000E+00  0.8000E+01
    -35.393  0.0000E+00  0.8000E+01
    -35.137  0.0000E+00  0.8000E+01
    -34.881  0.0000E+00  0.8000E+01
    -34.625  0.0000E+00  0.8000E+01
    -34.369  0.0000E+00  0.8000E+01
    -34.113  0.0000E+00  0.8000E+01
    -33.858  0.0000E+00  0.8000E+01
    -33.602  0.0000E+00  0.8000E+01
    -33.346  0.0000E+00  0.8000E+01
    -33.090  0.0000E+00  0.8000E+01
    -32.834  0.0000E+00  0.8000E+01
    -32.578  0.2839E+03  0.2717E+02
    -32.322  0.0000E+00  0.3200E+02
    -32.066  0.0000E+00  0.3200E+02
    -31.811  0.0000E+00  0.3200E+02
    -31.555  0.0000E+00  0.3200E+02
    -31.299  0.0000E+00  0.3200E+02
    -31.043  0.0000E+00  0.3200E+02
    -30.787  0.0000E+00  0.3200E+02
    -30.531  0.0000E+00  0.3200E+02
    -30.275  0.0000E+00  0.3200E+02
    -30.019  0.0000E+00  0.3200E+02
    -29.763  0.0000E+00  0.3200E+02
    -29.508  0.0000E+00  0.3200E+02
    -29.252  0.0000E+00  0.3200E+02
    -28.996  0.0000E+00  0.3200E+02
    -28.740  0.0000E+00  0.3200E+02
    -28.484  0.0000E+00  0.3200E+02
    -28.228  0.0000E+00  0.3200E+02
    -27.972  0.0000E+00  0.3200E+02
    -27.716  0.0000E+00  0.3200E+02
    -27.461  0.0000E+00  0.3200E+02
    -27.205  0.0000E+00  0.3200E+02
    -26.949  0.0000E+00  0.3200E+02
    -26.693  0.0000E+00  0.3200E+02
    -26.437  0.0000E+00  0.3200E+02
    -26.181  0.0000E+00  0.3200E+02
    -25.925  0.0000E+00  0.3200E+02
    -25.669  0.0000E+00  0.3200E+02
    -25.414  0.0000E+00  0.3200E+02
    -25.158  0.0000E+00  0.3200E+02
    -24.902  0.0000E+00  0.3200E+02
    -24.646  0.0000E+00  0.3200E+02
    -24.390  0.0000E+00  0.3200E+02
    -24.134  0.0000E+00  0.3200E+02
    -23.878  0.0000E+00  0.3200E+02
    -23.622  0.0000E+00  0.3200E+02
    -23.366  0.0000E+00  0.3200E+02
    -23.111  0.0000E+00  0.3200E+02
    -22.855  0.0000E+00  0.3200E+02
    -22.599  0.0000E+00  0.3200E+02
    -22.343  0.0000E+00  0.3200E+02
    -22.087  0.0000E+00  0.3200E+02
    -21.831  0.0000E+00  0.3200E+02
    -21.575  0.0000E+00  0.3200E+02
    -21.319  0.0000E+00  0.3200E+02
    -21.064  0.0000E+00  0.3200E+02
    -20.808  0.0000E+00  0.3200E+02
    -20.552  0.0000E+00  0.3200E+02
    -20.296  0.0000E+00  0.3200E+02
    -20.040  0.0000E+00  0.3200E+02
    -19.784  0.0000E+00  0.3200E+02
    -19.528  0.0000E+00  0.3200E+02
    -19.272  0.0000E+00  0.3200E+02
    -19.016  0.0000E+00  0.3200E+02
    -18.761  0.0000E+00  0.3200E+02
    -18.505  0.0000E+00  0.3200E+02
    -18.249  0.0000E+00  0.3200E+02
    -17.993  0.0000E+00  0.3200E+02
    -17.737  0.0000E+00  0.3200E+02
    -17.481  0.0000E+00  0.3200E+02
    -17.225  0.0000E+00  0.3200E+02
    -16.969  0.0000E+00  0.3200E+02
    -16.714  0.0000E+00  0.3200E+02
    -16.458  0.0000E+00  0.3200E+02
    -16.202  0.0000E+00  0.3200E+02
    -15.946  0.0000E+00  0.3200E+02
    -15.690  0.0000E+00  0.3200E+02
    -15.434  0.0000E+00  0.3200E+02
    -15.178  0.0000E+00  0.3200E+02
    -14.922  0.0000E+00  0.3200E+02
    -14.666  0.0000E+00  0.3200E+02
    -14.411  0.0000E+00  0.3200E+02
    -14.155  0.0000E+00  0.3200E+02
    -13.899  0.0000E+00  0.3200E+02
    -13.643  0.0000E+00  0.3200E+02
    -13.387  0.0000E+00  0.3200E+02
    -13.131  0.0000E+00  0.3200E+02
    -12.875  0.0000E+00  0.3200E+02
    -12.619  0.0000E+00  0.3200E+02
    -12.364  0.0000E+00  0.3200E+02
    -12.108  0.0000E+00  0.3200E+02
    -11.852  0.0000E+00  0.3200E+02
    -11.596  0.0000E+00  0.3200E+02
    -11.340  0.0000E+00  0.3200E+02
    -11.084  0.0000E+00  0.3200E+02
    -10.828  0.0000E+00  0.3200E+02
    -10.572  0.0000E+00  0.3200E+02
    -10.317  0.1568E+01  0.3224E+02
    -10.061  0.2286E+01  0.3280E+02
     -9.805  0.2424E+01  0.3339E+02
     -9.549  0.3299E+01  0.3413E+02
     -9.293  0.5282E+01  0.3526E+02
     -9.037  0.6764E+01  0.3687E+02
     -8.781  0.8122E+01  0.3875E+02
     -8.525  0.1230E+02  0.4127E+02
     -8.269  0.1286E+02  0.4455E+02
     -8.014  0.7489E+01  0.4752E+02
     -7.758  0.0000E+00  0.4800E+02
     -7.502  0.0000E+00  0.4800E+02
     -7.246  0.0000E+00  0.4800E+02
     -6.990  0.0000E+00  0.4800E+02
     -6.734  0.0000E+00  0.4800E+02
     -6.478  0.0000E+00  0.4800E+02
     -6.222  0.0000E+00  0.4800E+02
     -5.967  0.0000E+00  0.4800E+02
     -5.711  0.0000E+00  0.4800E+02
     -5.455  0.0000E+00  0.4800E+02
     -5.199  0.0000E+00  0.4800E+02
     -4.943  0.0000E+00  0.4800E+02
     -4.687  0.0000E+00  0.4800E+02
     -4.431  0.0000E+00  0.4800E+02
     -4.175  0.0000E+00  0.4800E+02
     -3.919  0.0000E+00  0.4800E+02
     -3.664  0.0000E+00  0.4800E+02
     -3.408  0.0000E+00  0.4800E+02
     -3.152  0.2579E+01  0.4834E+02
     -2.896  0.4972E+01  0.4943E+02
     -2.640  0.7244E+01  0.5087E+02
     -2.384  0.1181E+02  0.5349E+02
     -2.128  0.8612E+01  0.5724E+02
     -1.872  0.5174E+01  0.5920E+02
     -1.617  0.3378E+01  0.6060E+02
     -1.361  0.7984E+01  0.6211E+02
     -1.105  0.1172E+02  0.6502E+02
     -0.849  0.7441E+01  0.6866E+02
     -0.593  0.9466E+01  0.7076E+02
     -0.337  0.1220E+02  0.7355E+02
     -0.081  0.1216E+02  0.7675E+02
      0.175  0.7432E+01  0.7906E+02
      0.431  0.1115E+02  0.8093E+02
      0.686  0.1765E+02  0.8554E+02
      0.942  0.1403E+02  0.8984E+02
      1.198  0.1271E+02  0.9314E+02
      1.454  0.6346E+01  0.9582E+02
      1.710  0.1398E+02  0.9901E+02
      1.966  0.1012E+02  0.1025E+03
      2.222  0.3264E+01  0.1038E+03
      2.478  0.0000E+00  0.1040E+03
      2.733  0.0000E+00  0.1040E+03
      2.989  0.0000E+00  0.1040E+03
      3.245  0.2114E+01  0.1042E+03
      3.501  0.9791E+01  0.1062E+03
      3.757  0.1649E+02  0.1099E+03
      4.013  0.1869E+02  0.1150E+03
      4.269  0.8632E+01  0.1183E+03
      4.525  0.1339E+02  0.1213E+03
      4.780  0.8606E+01  0.1243E+03
      5.036  0.5408E+01  0.1261E+03
      5.292  0.5253E+01  0.1274E+03
      5.548  0.2632E+02  0.1307E+03
      5.804  0.1161E+02  0.1330E+03
      6.060  0.6595E+01  0.1349E+03
      6.316  0.4423E+01  0.1360E+03
      6.572  0.3292E+01  0.1365E+03
      6.828  0.5371E+01  0.1375E+03
      7.083  0.5555E+01  0.1386E+03
      7.339  0.6394E+01  0.1399E+03
      7.595  0.4713E+01  0.1411E+03
      7.851  0.4802E+01  0.1424E+03
      8.107  0.5914E+01  0.1437E+03
      8.363  0.6421E+01  0.1454E+03
      8.619  0.1170E+02  0.1476E+03
      8.875  0.9207E+01  0.1500E+03
      9.130  0.9946E+01  0.1529E+03
      9.386  0.1188E+02  0.1559E+03
      9.642  0.1859E+02  0.1592E+03
      9.898  0.1199E+02  0.1625E+03
     10.154  0.9626E+01  0.1650E+03
     10.410  0.4234E+01  0.1667E+03
     10.666  0.1265E+01  0.1674E+03
     10.922  0.7224E+00  0.1677E+03
     11.178  0.8567E+00  0.1680E+03
     11.433  0.0000E+00  0.1680E+03
     11.689  0.0000E+00  0.1680E+03
     11.945  0.0000E+00  0.1680E+03
     12.201  0.0000E+00  0.1680E+03
     12.457  0.0000E+00  0.1680E+03
     12.713  0.0000E+00  0.1680E+03
     12.969  0.0000E+00  0.1680E+03
     13.225  0.0000E+00  0.1680E+03
     13.480  0.0000E+00  0.1680E+03
     13.736  0.0000E+00  0.1680E+03
     13.992  0.0000E+00  0.1680E+03
     14.248  0.0000E+00  0.1680E+03
     14.504  0.0000E+00  0.1680E+03
     14.760  0.0000E+00  0.1680E+03
