       N       E                     dE             d eps       ncg     rms          rms(c)
DAV:   1     0.622513699940E+03    0.62251E+03   -0.41732E+04  7588   0.766E+02
DAV:   2    -0.252002845692E+02   -0.64771E+03   -0.62329E+03  9576   0.279E+02
DAV:   3    -0.819497670588E+02   -0.56749E+02   -0.55475E+02  9212   0.795E+01
DAV:   4    -0.844182502595E+02   -0.24685E+01   -0.24564E+01  9352   0.209E+01
DAV:   5    -0.845362826974E+02   -0.11803E+00   -0.11798E+00 10080   0.415E+00    0.176E+01
DAV:   6    -0.802514833073E+02    0.42848E+01   -0.56285E+01 10276   0.296E+01    0.126E+01
DAV:   7    -0.756425688295E+02    0.46089E+01   -0.21061E+01 10584   0.185E+01    0.551E+00
DAV:   8    -0.752794561360E+02    0.36311E+00   -0.28446E+00 10080   0.670E+00    0.156E+00
DAV:   9    -0.752209341428E+02    0.58522E-01   -0.24804E-01  9044   0.222E+00    0.566E-01
DAV:  10    -0.752152431151E+02    0.56910E-02   -0.41798E-02  9912   0.812E-01    0.235E-01
DAV:  11    -0.752147595231E+02    0.48359E-03   -0.76115E-03  9576   0.429E-01    0.122E-01
DAV:  12    -0.752144270599E+02    0.33246E-03   -0.19260E-03  9408   0.225E-01    0.475E-02
DAV:  13    -0.752143341630E+02    0.92897E-04   -0.58990E-04  8372   0.106E-01    0.237E-02
DAV:  14    -0.752143161192E+02    0.18044E-04   -0.13257E-04  8736   0.439E-02    0.135E-02
DAV:  15    -0.752143467558E+02   -0.30637E-04   -0.32215E-05  7896   0.143E-02    0.773E-03
DAV:  16    -0.752143927302E+02   -0.45974E-04   -0.14038E-05  7896   0.112E-02    0.464E-03
DAV:  17    -0.752144481623E+02   -0.55432E-04   -0.51605E-06  7644   0.556E-03    0.237E-03
DAV:  18    -0.752144851630E+02   -0.37001E-04   -0.31033E-06  7364   0.367E-03    0.139E-03
DAV:  19    -0.752145152855E+02   -0.30123E-04   -0.16514E-06  7252   0.254E-03    0.761E-04
DAV:  20    -0.752145267911E+02   -0.11506E-04   -0.17787E-07  8232   0.126E-03    0.528E-04
DAV:  21    -0.752145429960E+02   -0.16205E-04   -0.25733E-07  7532   0.931E-04    0.253E-04
DAV:  22    -0.752145470190E+02   -0.40230E-05   -0.38321E-08  7588   0.416E-04    0.156E-04
DAV:  23    -0.752145499137E+02   -0.28946E-05   -0.45754E-08  6552   0.363E-04    0.757E-05
DAV:  24    -0.752145509000E+02   -0.98633E-06   -0.62109E-09  6524   0.191E-04    0.471E-05
DAV:  25    -0.752145516420E+02   -0.74201E-06   -0.66996E-09  5712   0.187E-04    0.279E-05
DAV:  26    -0.752145518942E+02   -0.25223E-06   -0.13998E-09  5880   0.131E-04    0.204E-05
DAV:  27    -0.752145519822E+02   -0.88017E-07   -0.35147E-10  5376   0.977E-05    0.797E-06
DAV:  28    -0.752145520088E+02   -0.26585E-07   -0.12869E-10  5656   0.688E-05    0.816E-06
DAV:  29    -0.752145520123E+02   -0.34415E-08   -0.19937E-11  5684   0.443E-05
   1 F= -.79183716E+02 E0= -.79183716E+02  d E =0.000000E+00
 Linear response reoptimize wavefunctions
DAV:   1    -0.752145520131E+02    0.39692E+01    0.86544E-12  5712   0.318E-05
DAV:   2    -0.752145520131E+02    0.14552E-10    0.38164E-11  5992   0.190E-05
 Linear response G [H, r] |phi>, progress :
  Direction:   1
       N       E                     dE             d eps       ncg     rms
RMM:   1    -0.498717375291E+03   -0.49872E+03   -0.84142E+03  6721   0.725E+02
RMM:   2    -0.485822395329E+03    0.12895E+02   -0.15119E+02  9989   0.844E+01
RMM:   3    -0.521175011056E+03   -0.35353E+02   -0.19714E+02 12076   0.259E+01
RMM:   4    -0.524310063208E+03   -0.31351E+01   -0.67321E+00 12646   0.681E+00
RMM:   5    -0.524543957029E+03   -0.23389E+00   -0.10175E+00 13760   0.179E+00
RMM:   6    -0.524552294681E+03   -0.83377E-02   -0.67111E-02 13311   0.582E-01
RMM:   7    -0.524555243431E+03   -0.29488E-02   -0.21836E-02 14494   0.195E-01
RMM:   8    -0.524555505733E+03   -0.26230E-03   -0.18483E-03 14436   0.665E-02
RMM:   9    -0.524555560649E+03   -0.54916E-04   -0.36201E-04 14395   0.262E-02
RMM:  10    -0.524555577175E+03   -0.16526E-04   -0.88425E-05 14886   0.108E-02
RMM:  11    -0.524555585202E+03   -0.80272E-05   -0.11058E-04 15442   0.553E-03
RMM:  12    -0.524555583797E+03    0.14057E-05   -0.83934E-05 16096   0.362E-03
RMM:  13    -0.524555583772E+03    0.25164E-07   -0.81893E-05 16505   0.303E-03
RMM:  14    -0.524555583290E+03    0.48139E-06   -0.76760E-05 16635   0.283E-03
RMM:  15    -0.524555583526E+03   -0.23605E-06   -0.79085E-05 16719   0.277E-03
 Linear response G [H, r] |phi>, progress :
  Direction:   2
       N       E                     dE             d eps       ncg     rms
RMM:   1    -0.482858259738E+03   -0.48286E+03   -0.86290E+03  6754   0.724E+02
RMM:   2    -0.516793352232E+03   -0.33935E+02   -0.12477E+02  9793   0.844E+01
RMM:   3    -0.553802658512E+03   -0.37009E+02   -0.18979E+02 12163   0.263E+01
RMM:   4    -0.557640424800E+03   -0.38378E+01   -0.94857E+00 12632   0.711E+00
RMM:   5    -0.557900741139E+03   -0.26032E+00   -0.10988E+00 13678   0.191E+00
RMM:   6    -0.557912649860E+03   -0.11909E-01   -0.71388E-02 13083   0.613E-01
RMM:   7    -0.557916458296E+03   -0.38084E-02   -0.24629E-02 14378   0.205E-01
RMM:   8    -0.557916731037E+03   -0.27274E-03   -0.20368E-03 14236   0.671E-02
RMM:   9    -0.557916792844E+03   -0.61807E-04   -0.82520E-04 14444   0.255E-02
RMM:  10    -0.557916794217E+03   -0.13733E-05   -0.44140E-04 14803   0.103E-02
RMM:  11    -0.557916795556E+03   -0.13388E-05   -0.40948E-04 15486   0.551E-03
RMM:  12    -0.557916795525E+03    0.30963E-07   -0.40110E-04 16151   0.390E-03
RMM:  13    -0.557916795798E+03   -0.27251E-06   -0.40277E-04 16528   0.343E-03
RMM:  14    -0.557916795964E+03   -0.16683E-06   -0.40428E-04 16648   0.330E-03
RMM:  15    -0.557916796099E+03   -0.13482E-06   -0.40561E-04 16669   0.326E-03
 Linear response G [H, r] |phi>, progress :
  Direction:   3
       N       E                     dE             d eps       ncg     rms
RMM:   1    -0.515168590165E+03   -0.51517E+03   -0.91616E+03  7169   0.716E+02
RMM:   2    -0.515667334690E+03   -0.49874E+00   -0.18426E+02  9998   0.812E+01
RMM:   3    -0.544139102235E+03   -0.28472E+02   -0.15710E+02 11900   0.252E+01
RMM:   4    -0.548132761952E+03   -0.39937E+01   -0.90592E+00 12387   0.683E+00
RMM:   5    -0.548257962794E+03   -0.12520E+00   -0.58105E-01 13225   0.172E+00
RMM:   6    -0.548267281525E+03   -0.93187E-02   -0.65785E-02 13309   0.531E-01
RMM:   7    -0.548269035336E+03   -0.17538E-02   -0.12508E-02 13655   0.172E-01
RMM:   8    -0.548269193699E+03   -0.15836E-03   -0.13268E-03 14010   0.584E-02
RMM:   9    -0.548269234155E+03   -0.40456E-04   -0.29310E-04 13996   0.220E-02
RMM:  10    -0.548269237023E+03   -0.28679E-05   -0.43765E-05 14556   0.864E-03
RMM:  11    -0.548269239887E+03   -0.28642E-05   -0.31514E-05 15173   0.435E-03
RMM:  12    -0.548269239387E+03    0.50005E-06   -0.18217E-05 16003   0.285E-03
RMM:  13    -0.548269239507E+03   -0.11959E-06   -0.18263E-05 16256   0.242E-03
RMM:  14    -0.548269239225E+03    0.28199E-06   -0.15204E-05 16328   0.230E-03
RMM:  15    -0.548269239690E+03   -0.46522E-06   -0.19834E-05 16348   0.228E-03
 Linear response to external field (no local field effect), progress :
  Direction:   1
       N       E                     dE             d eps       ncg     rms          rms(c)
RMM:   1    -0.946978622208E+01   -0.94698E+01   -0.55269E+01 15044   0.913E+00
RMM:   2    -0.161333721435E+02   -0.66636E+01    0.11236E+00  9806   0.269E+00
RMM:   3    -0.163661749485E+02   -0.23280E+00   -0.17001E-01 12291   0.734E-01
RMM:   4    -0.163712212561E+02   -0.50463E-02   -0.80775E-03 12399   0.171E-01
RMM:   5    -0.163714933287E+02   -0.27207E-03   -0.85814E-04 13090   0.526E-02
RMM:   6    -0.163715212448E+02   -0.27916E-04   -0.83517E-05 13038   0.180E-02
RMM:   7    -0.163715246536E+02   -0.34088E-05   -0.12296E-05 12536   0.625E-03
RMM:   8    -0.163715251398E+02   -0.48614E-06   -0.17632E-06 11927   0.221E-03
RMM:   9    -0.163715252102E+02   -0.70430E-07   -0.39611E-07 11370   0.811E-04
RMM:  10    -0.163715252161E+02   -0.59054E-08   -0.14782E-07 11761   0.344E-04
RMM:  11    -0.163715252185E+02   -0.23558E-08   -0.13206E-07 11390   0.193E-04
RMM:  12    -0.163715252176E+02    0.83975E-09   -0.11823E-07 10759   0.149E-04
RMM:  13    -0.163715252182E+02   -0.54310E-09   -0.12272E-07 10105   0.137E-04
RMM:  14    -0.163715252171E+02    0.10410E-08   -0.11214E-07  9805   0.135E-04
RMM:  15    -0.163715252181E+02   -0.99691E-09   -0.12212E-07  9627   0.134E-04
 Linear response to external field (no local field effect), progress :
  Direction:   2
       N       E                     dE             d eps       ncg     rms          rms(c)
RMM:   1    -0.105863561816E+02   -0.10586E+02   -0.61787E+01 14955   0.935E+00
RMM:   2    -0.170095733694E+02   -0.64232E+01    0.89810E-01  9803   0.278E+00
RMM:   3    -0.172215793974E+02   -0.21201E+00   -0.18000E-01 12271   0.765E-01
RMM:   4    -0.172267313536E+02   -0.51520E-02   -0.85744E-03 12325   0.189E-01
RMM:   5    -0.172270628603E+02   -0.33151E-03   -0.11445E-03 13088   0.605E-02
RMM:   6    -0.172270974297E+02   -0.34569E-04   -0.10159E-04 13100   0.202E-02
RMM:   7    -0.172271022367E+02   -0.48071E-05   -0.15515E-05 12424   0.699E-03
RMM:   8    -0.172271028459E+02   -0.60920E-06   -0.21949E-06 11989   0.245E-03
RMM:   9    -0.172271029281E+02   -0.82133E-07   -0.44292E-07 11428   0.904E-04
RMM:  10    -0.172271029381E+02   -0.10072E-07   -0.21720E-07 11759   0.399E-04
RMM:  11    -0.172271029407E+02   -0.25721E-08   -0.19326E-07 11450   0.235E-04
RMM:  12    -0.172271029398E+02    0.91020E-09   -0.17802E-07 10794   0.186E-04
RMM:  13    -0.172271029410E+02   -0.11692E-08   -0.18869E-07 10100   0.173E-04
RMM:  14    -0.172271029404E+02    0.56572E-09   -0.18289E-07  9787   0.170E-04
 Linear response to external field (no local field effect), progress :
  Direction:   3
       N       E                     dE             d eps       ncg     rms          rms(c)
RMM:   1    -0.754868029664E+01   -0.75487E+01   -0.38025E+01 14955   0.877E+00
RMM:   2    -0.101303828551E+02   -0.25817E+01   -0.22164E-01  9581   0.245E+00
RMM:   3    -0.101981014286E+02   -0.67719E-01   -0.10808E-01 12014   0.673E-01
RMM:   4    -0.102012686836E+02   -0.31673E-02   -0.64758E-03 12396   0.180E-01
RMM:   5    -0.102014441897E+02   -0.17551E-03   -0.65726E-04 12542   0.562E-02
RMM:   6    -0.102014629527E+02   -0.18763E-04   -0.76431E-05 13007   0.197E-02
RMM:   7    -0.102014659303E+02   -0.29776E-05   -0.10243E-05 12464   0.666E-03
RMM:   8    -0.102014662312E+02   -0.30088E-06   -0.16149E-06 11564   0.230E-03
RMM:   9    -0.102014662798E+02   -0.48594E-07   -0.60879E-07 11167   0.797E-04
RMM:  10    -0.102014662807E+02   -0.95196E-09   -0.44036E-07 11555   0.324E-04
RMM:  11    -0.102014662882E+02   -0.74559E-08   -0.48934E-07 11101   0.173E-04
RMM:  12    -0.102014662858E+02    0.23817E-08   -0.46265E-07 10561   0.129E-04
RMM:  13    -0.102014662868E+02   -0.96798E-09   -0.47188E-07  9613   0.118E-04
RMM:  14    -0.102014662877E+02   -0.89671E-09   -0.48079E-07  9309   0.116E-04
RMM:  15    -0.102014662875E+02    0.16590E-09   -0.47912E-07  9174   0.116E-04
 Linear response to external field, progress :
  Direction:   1
       N       E                     dE             d eps       ncg     rms          rms(c)
RMM:   1    -0.100778980353E+02   -0.10078E+02   -0.59026E+01 36941   0.915E+00
RMM:   2    -0.165796883755E+02   -0.65018E+01    0.94491E-01 24261   0.268E+00    0.789E+00
RMM:   3    -0.162647042218E+02    0.31498E+00   -0.29212E-01 26915   0.260E+00    0.424E+00
RMM:   4    -0.166355257234E+02   -0.37082E+00   -0.27144E-02 27332   0.254E+00    0.665E-01
RMM:   5    -0.167858514229E+02   -0.15033E+00    0.18459E-02 28818   0.757E-01    0.107E-01
RMM:   6    -0.168112090857E+02   -0.25358E-01   -0.48461E-02 32150   0.179E-01    0.635E-02
RMM:   7    -0.168036773720E+02    0.75317E-02    0.57322E-02 31122   0.624E-02    0.402E-02
RMM:   8    -0.168151741914E+02   -0.11497E-01   -0.31607E-02 29765   0.346E-02    0.105E-02
RMM:   9    -0.168127981399E+02    0.23761E-02   -0.32518E-04 30023   0.139E-02    0.513E-03
RMM:  10    -0.168133835553E+02   -0.58542E-03    0.18737E-05 30477   0.595E-03    0.167E-03
RMM:  11    -0.168134005527E+02   -0.16997E-04    0.43481E-04 32541   0.223E-03    0.988E-04
RMM:  12    -0.168134355081E+02   -0.34955E-04    0.49215E-04 32489   0.991E-04    0.590E-04
RMM:  13    -0.168135052840E+02   -0.69776E-04    0.37982E-04 28336   0.685E-04    0.158E-04
RMM:  14    -0.168135682726E+02   -0.62989E-04   -0.23002E-04 31329   0.316E-04    0.673E-05
RMM:  15    -0.168135547102E+02    0.13562E-04   -0.10697E-04 31420   0.199E-04    0.292E-05
RMM:  16    -0.168135455554E+02    0.91548E-05   -0.92710E-06 28839   0.160E-04    0.111E-05
RMM:  17    -0.168135462080E+02   -0.65260E-06   -0.17429E-05 24961   0.151E-04    0.447E-06
 Linear response to external field, progress :
  Direction:   2
       N       E                     dE             d eps       ncg     rms          rms(c)
RMM:   1    -0.101018391572E+02   -0.10102E+02   -0.59266E+01 37020   0.916E+00
RMM:   2    -0.165805474109E+02   -0.64787E+01    0.91991E-01 24315   0.269E+00    0.789E+00
RMM:   3    -0.162544008995E+02    0.32615E+00   -0.19236E-01 26971   0.261E+00    0.424E+00
RMM:   4    -0.166624242524E+02   -0.40802E+00   -0.29709E-01 27402   0.254E+00    0.665E-01
RMM:   5    -0.167716132050E+02   -0.10919E+00    0.14995E-01 28901   0.761E-01    0.139E-01
RMM:   6    -0.168236776038E+02   -0.52064E-01   -0.19457E-01 31794   0.204E-01    0.875E-02
RMM:   7    -0.168016370555E+02    0.22041E-01    0.66552E-02 32832   0.741E-02    0.426E-02
RMM:   8    -0.168111601018E+02   -0.95230E-02    0.72336E-03 29655   0.399E-02    0.103E-02
RMM:   9    -0.168129167824E+02   -0.17567E-02   -0.29535E-03 32141   0.131E-02    0.557E-03
RMM:  10    -0.168131601962E+02   -0.24341E-03    0.11907E-06 29531   0.667E-03    0.355E-03
RMM:  11    -0.168134366335E+02   -0.27644E-03   -0.30892E-04 30740   0.295E-03    0.115E-03
RMM:  12    -0.168134532802E+02   -0.16647E-04    0.35910E-04 29234   0.176E-03    0.666E-04
RMM:  13    -0.168135339710E+02   -0.80691E-04   -0.25450E-05 31379   0.696E-04    0.297E-04
RMM:  14    -0.168135451656E+02   -0.11195E-04   -0.64899E-05 30388   0.366E-04    0.126E-04
RMM:  15    -0.168135428213E+02    0.23442E-05   -0.22175E-05 31926   0.243E-04    0.546E-05
RMM:  16    -0.168135429310E+02   -0.10960E-06   -0.23551E-05 31174   0.185E-04    0.228E-05
RMM:  17    -0.168135408031E+02    0.21279E-05   -0.52691E-06 26490   0.152E-04    0.159E-05
RMM:  18    -0.168135403188E+02    0.48432E-06   -0.16676E-06 25156   0.150E-04    0.783E-06
 Linear response to external field, progress :
  Direction:   3
       N       E                     dE             d eps       ncg     rms          rms(c)
RMM:   1    -0.754868029664E+01   -0.75487E+01   -0.38025E+01 14955   0.877E+00
RMM:   2    -0.101303828551E+02   -0.25817E+01   -0.22164E-01  9581   0.245E+00    0.634E+00
RMM:   3    -0.203880683205E+02   -0.10258E+02   -0.18413E+02 10891   0.412E+00    0.296E+00
RMM:   4    -0.289170440549E+01    0.17496E+02   -0.93833E+00 10679   0.184E+00    0.139E+00
RMM:   5    -0.307064555108E+01   -0.17894E+00   -0.12779E+01 11002   0.927E-01    0.980E-01
RMM:   6    -0.438803621496E+01   -0.13174E+01   -0.27876E+01 11036   0.833E-01    0.374E-01
RMM:   7    -0.238000344096E+01    0.20080E+01   -0.78978E+00 12107   0.296E-01    0.268E-01
RMM:   8    -0.166395228367E+01    0.71605E+00   -0.89132E-01 10746   0.209E-01    0.134E-01
RMM:   9    -0.170936473107E+01   -0.45412E-01   -0.13686E+00 11514   0.113E-01    0.641E-02
RMM:  10    -0.162852536500E+01    0.80839E-01   -0.56604E-01 11335   0.652E-02    0.509E-02
RMM:  11    -0.158141083005E+01    0.47115E-01   -0.10242E-01 10477   0.438E-02    0.250E-02
RMM:  12    -0.157366366986E+01    0.77472E-02   -0.20789E-02 10071   0.374E-02    0.168E-02
RMM:  13    -0.157871550765E+01   -0.50518E-02   -0.62614E-02 10554   0.231E-02    0.956E-03
RMM:  14    -0.157874126384E+01   -0.25756E-04   -0.55854E-02 10586   0.181E-02    0.516E-03
RMM:  15    -0.157350884981E+01    0.52324E-02   -0.10988E-03 11041   0.814E-03    0.329E-03
RMM:  16    -0.157380971533E+01   -0.30087E-03   -0.31236E-03 10936   0.482E-03    0.223E-03
RMM:  17    -0.157669212957E+01   -0.28824E-02   -0.31496E-02 10964   0.461E-03    0.105E-03
RMM:  18    -0.157271541508E+01    0.39767E-02    0.80399E-03 10971   0.260E-03    0.527E-04
RMM:  19    -0.157415250758E+01   -0.14371E-02   -0.64502E-03 11258   0.150E-03    0.320E-04
RMM:  20    -0.157316372944E+01    0.98878E-03    0.33490E-03 11245   0.107E-03    0.206E-04
RMM:  21    -0.157379392424E+01   -0.63019E-03   -0.30696E-03 10956   0.115E-03    0.997E-05
RMM:  22    -0.157341617353E+01    0.37775E-03    0.68188E-04 11462   0.295E-04    0.608E-05
RMM:  23    -0.157352006551E+01   -0.10389E-03   -0.37793E-04 11265   0.277E-04    0.416E-05
RMM:  24    -0.157353358959E+01   -0.13524E-04   -0.51835E-04 11210   0.124E-04    0.250E-05
RMM:  25    -0.157354551846E+01   -0.11929E-04   -0.64135E-04 10284   0.146E-04    0.168E-05
RMM:  26    -0.157354607721E+01   -0.55875E-06   -0.64776E-04 10256   0.730E-05    0.986E-06
