 vasp.5.4.1 24Jun15 (build Apr 13 2016 13:07:19) complex                        
  
 executed on           IFC91_ompi date 2019.09.14  01:32:22
 running on   28 total cores
 distrk:  each k-point on   28 cores,    1 groups
 distr:  one band on NCORES_PER_BAND=   1 cores,   28 groups


--------------------------------------------------------------------------------------------------------


 INCAR:
 POTCAR:    PAW_PBE Mo_sv_GW 05Dec2013            
 POTCAR:    PAW_PBE Te_GW 22Mar2012               

 ----------------------------------------------------------------------------- 
|                                                                             |
|           W    W    AA    RRRRR   N    N  II  N    N   GGGG   !!!           |
|           W    W   A  A   R    R  NN   N  II  NN   N  G    G  !!!           |
|           W    W  A    A  R    R  N N  N  II  N N  N  G       !!!           |
|           W WW W  AAAAAA  RRRRR   N  N N  II  N  N N  G  GGG   !            |
|           WW  WW  A    A  R   R   N   NN  II  N   NN  G    G                |
|           W    W  A    A  R    R  N    N  II  N    N   GGGG   !!!           |
|                                                                             |
|      For optimal performance we recommend to set                            |
|        NCORE= 4 - approx SQRT( number of cores)                             |
|      NCORE specifies how many cores store one orbital (NPAR=cpu/NCORE).     |
|      This setting can  greatly improve the performance of VASP for DFT.     |
|      The default, NPAR=number of cores might be grossly inefficient         |
|      on modern multi-core architectures or massively parallel machines.     |
|      Do your own testing !!!!                                               |
|      Unfortunately you need to use the default for GW and RPA calculations. |
|      (for HF NCORE is supported but not extensively tested yet)             |
|                                                                             |
 ----------------------------------------------------------------------------- 

 POTCAR:    PAW_PBE Mo_sv_GW 05Dec2013            
   VRHFIN =Mo: 4s4p5s4d                                                         
   LEXCH  = PE                                                                  
   EATOM  =  1861.5185 eV,  136.8178 Ry                                         
                                                                                
   TITEL  = PAW_PBE Mo_sv_GW 05Dec2013                                          
   LULTRA =        F    use ultrasoft PP ?                                      
   IUNSCR =        1    unscreen: 0-lin 1-nonlin 2-no                           
   RPACOR =    2.000    partial core radius                                     
   POMASS =   95.940; ZVAL   =   14.000    mass and valenz                      
   RCORE  =    2.100    outmost cutoff radius                                   
   RWIGS  =    2.100; RWIGS  =    1.111    wigner-seitz radius (au A)           
   ENMAX  =  344.914; ENMIN  =  258.686 eV                                      
   RCLOC  =    1.508    cutoff for local pot                                    
   LCOR   =        T    correct aug charges                                     
   LPAW   =        T    paw PP                                                  
   EAUG   =  964.741                                                            
   DEXC   =    0.000                                                            
   RMAX   =    2.149    core radius for proj-oper                               
   RAUG   =    1.300    factor for augmentation sphere                          
   RDEP   =    2.179    radius for radial grids                                 
   RDEPT  =    1.677    core radius for aug-charge                              
                                                                                
   Atomic configuration                                                         
   12 entries                                                                   
     n  l   j            E        occ.                                          
     1  0  0.50    -19816.9363   2.0000                                         
     2  0  0.50     -2796.7578   2.0000                                         
     2  1  1.50     -2499.7842   6.0000                                         
     3  0  0.50      -474.2095   2.0000                                         
     3  1  1.50      -376.9135   6.0000                                         
     3  2  2.50      -218.6898  10.0000                                         
     4  0  0.50       -62.1983   2.0000                                         
     4  0  0.50       -66.6685   0.0000                                         
     4  1  1.50       -36.4414   6.0000                                         
     4  1  1.50       -40.8175   0.0000                                         
     4  2  2.50        -2.3086   6.0000                                         
     4  3  2.50        -1.3606   0.0000                                         
   Description                                                                  
     l       E           TYP  RCUT    TYP  RCUT                                 
     0    -62.1983072     23  1.950                                             
     0     27.2116520     23  1.950                                             
     0    149.6640860     23  1.950                                             
     1    -36.4413666     23  1.800                                             
     1    -40.8174780     23  1.800                                             
     1     54.4233040     23  1.800                                             
     2     -2.3085597     23  2.000                                             
     2     -6.8029130     23  2.000                                             
     2    136.0582600     23  2.000                                             
     3     13.6058260     23  2.100                                             
     3     81.6349560     23  2.100                                             
  local pseudopotential read in
  partial core-charges read in
  partial kinetic energy density read in
  kinetic energy density of atom read in
  atomic valenz-charges read in
  non local Contribution for L=           0  read in
    real space projection operators read in
  non local Contribution for L=           0  read in
    real space projection operators read in
  non local Contribution for L=           0  read in
    real space projection operators read in
  non local Contribution for L=           1  read in
    real space projection operators read in
  non local Contribution for L=           1  read in
    real space projection operators read in
  non local Contribution for L=           1  read in
    real space projection operators read in
  non local Contribution for L=           2  read in
    real space projection operators read in
  non local Contribution for L=           2  read in
    real space projection operators read in
  non local Contribution for L=           2  read in
    real space projection operators read in
  non local Contribution for L=           3  read in
    real space projection operators read in
  non local Contribution for L=           3  read in
    real space projection operators read in
    PAW grid and wavefunctions read in
 
   number of l-projection  operators is LMAX  =          11
   number of lm-projection operators is LMMAX =          41
 
 POTCAR:    PAW_PBE Te_GW 22Mar2012               
   VRHFIN =Te: s2p4                                                             
   LEXCH  = PE                                                                  
   EATOM  =   223.2721 eV,   16.4100 Ry                                         
                                                                                
   TITEL  = PAW_PBE Te_GW 22Mar2012                                             
   LULTRA =        F    use ultrasoft PP ?                                      
   IUNSCR =        1    unscreen: 0-lin 1-nonlin 2-no                           
   RPACOR =    2.200    partial core radius                                     
   POMASS =  127.600; ZVAL   =    6.000    mass and valenz                      
   RCORE  =    2.600    outmost cutoff radius                                   
   RWIGS  =    2.900; RWIGS  =    1.535    wigner-seitz radius (au A)           
   ENMAX  =  174.982; ENMIN  =  131.236 eV                                      
   ICORE  =        3    local potential                                         
   LCOR   =        T    correct aug charges                                     
   LPAW   =        T    paw PP                                                  
   EAUG   =  368.792                                                            
   DEXC   =    0.000                                                            
   RMAX   =    2.665    core radius for proj-oper                               
   RAUG   =    1.300    factor for augmentation sphere                          
   RDEP   =    2.724    radius for radial grids                                 
   RDEPT  =    2.174    core radius for aug-charge                              
                                                                                
   Atomic configuration                                                         
   13 entries                                                                   
     n  l   j            E        occ.                                          
     1  0  0.50    -31621.2075   2.0000                                         
     2  0  0.50     -4848.7941   2.0000                                         
     2  1  1.50     -4352.1960   6.0000                                         
     3  0  0.50      -964.9612   2.0000                                         
     3  1  1.50      -803.6179   6.0000                                         
     3  2  2.50      -559.8710  10.0000                                         
     4  0  0.50      -164.3522   2.0000                                         
     4  1  1.50      -114.3756   6.0000                                         
     4  2  2.50       -41.6483  10.0000                                         
     5  0  0.50       -15.1072   2.0000                                         
     5  1  0.50        -5.9526   4.0000                                         
     5  2  1.50        -6.8029   0.0000                                         
     4  3  2.50        -6.8029   0.0000                                         
   Description                                                                  
     l       E           TYP  RCUT    TYP  RCUT                                 
     0    -15.1072389     23  2.300                                             
     0     68.0291300     23  2.300                                             
     1     -5.9526306     23  2.300                                             
     1     95.2407820     23  2.300                                             
     2      1.3605826     23  2.600                                             
     2     68.0291300     23  2.600                                             
     3     -1.3605826     23  2.300                                             
  local pseudopotential read in
  partial core-charges read in
  partial kinetic energy density read in
  kinetic energy density of atom read in
  atomic valenz-charges read in
  non local Contribution for L=           0  read in
    real space projection operators read in
  non local Contribution for L=           0  read in
    real space projection operators read in
  non local Contribution for L=           1  read in
    real space projection operators read in
  non local Contribution for L=           1  read in
    real space projection operators read in
  non local Contribution for L=           2  read in
    real space projection operators read in
  non local Contribution for L=           2  read in
    real space projection operators read in
    PAW grid and wavefunctions read in
 
   number of l-projection  operators is LMAX  =           6
   number of lm-projection operators is LMMAX =          18
 
  PAW_PBE Mo_sv_GW 05Dec2013            :
 energy of atom  1       EATOM=-1861.5185
 kinetic energy error for atom=    0.1105 (will be added to EATOM!!)
  PAW_PBE Te_GW 22Mar2012               :
 energy of atom  2       EATOM= -223.2721
 kinetic energy error for atom=    0.0019 (will be added to EATOM!!)
 
 
 POSCAR: Mo Te                                   
  positions in cartesian coordinates
  No initial velocities read in
 exchange correlation table for  LEXCH =        8
   RHO(1)=    0.500       N(1)  =     2000
   RHO(2)=  100.500       N(2)  =     4000
 


--------------------------------------------------------------------------------------------------------


 ion  position               nearest neighbor table
   1  0.167  0.333  0.291-   5 2.73   6 2.73   5 2.73   6 2.73   5 2.73   6 2.73
   2  0.833  0.667  0.430-   7 2.73   8 2.73   7 2.73   8 2.73   7 2.73   8 2.73
   3  0.167  0.333  0.570-   9 2.73  10 2.73   9 2.73  10 2.73   9 2.73  10 2.73
   4  0.833  0.667  0.709-  11 2.73  12 2.73  11 2.73  12 2.73  11 2.73  12 2.73
   5  0.833  0.667  0.327-   1 2.73   1 2.73   1 2.73   6 3.61
   6  0.833  0.667  0.254-   1 2.73   1 2.73   1 2.73   5 3.61
   7  0.167  0.333  0.466-   2 2.73   2 2.73   2 2.73   8 3.61
   8  0.167  0.333  0.394-   2 2.73   2 2.73   2 2.73   7 3.61
   9  0.833  0.667  0.606-   3 2.73   3 2.73   3 2.73  10 3.61
  10  0.833  0.667  0.534-   3 2.73   3 2.73   3 2.73   9 3.61
  11  0.167  0.333  0.746-   4 2.73   4 2.73   4 2.73  12 3.61
  12  0.167  0.333  0.673-   4 2.73   4 2.73   4 2.73  11 3.61
 
  LATTYP: Found a hexagonal cell.
 ALAT       =     3.5473923118
 C/A-ratio  =    14.0948605637
  
  Lattice vectors:
  
 A1 = (   3.5473923118,   0.0000000000,   0.0000000000)
 A2 = (  -1.7736961559,   3.0721318592,   0.0000000000)
 A3 = (   0.0000000000,   0.0000000000,  50.0000000000)


Analysis of symmetry for initial positions (statically):
=====================================================================
 Subroutine PRICEL returns:
 Original cell was already a primitive cell.
 

 Routine SETGRP: Setting up the symmetry group for a 
 hexagonal supercell.


 Subroutine GETGRP returns: Found 12 space group operations
 (whereof  4 operations were pure point group operations)
 out of a pool of 24 trial point group operations.


The static configuration has the point symmetry C_2h.
 The point group associated with its full space group is D_3d.


Analysis of symmetry for dynamics (positions and initial velocities):
=====================================================================
 Subroutine PRICEL returns:
 Original cell was already a primitive cell.
 

 Routine SETGRP: Setting up the symmetry group for a 
 hexagonal supercell.


 Subroutine GETGRP returns: Found 12 space group operations
 (whereof  4 operations were pure point group operations)
 out of a pool of 24 trial point group operations.


The dynamic configuration has the point symmetry C_2h.
 The point group associated with its full space group is D_3d.


 Subroutine INISYM returns: Found 12 space group operations
 (whereof  4 operations are pure point group operations),
 and found     1 'primitive' translations

 
 
 KPOINTS: KPOINTS created by Atomic Simulation Env

Automatic generation of k-mesh.
Space group operators:
 irot       det(A)        alpha          n_x          n_y          n_z        tau_x        tau_y        tau_z
    1     1.000000     0.000001     1.000000     0.000000     0.000000     0.000000     0.000000     0.000000
    2    -1.000000     0.000001     1.000000     0.000000     0.000000     0.000000     0.000000     0.000000
    3     1.000000   180.000000     1.000000     0.000000     0.000000     0.000000     0.000000     0.000000
    4    -1.000000   180.000000     1.000000     0.000000     0.000000     0.000000     0.000000     0.000000
    5     1.000000   120.000000     0.000000     0.000000    -1.000000     0.500000     0.500000     0.000000
    6    -1.000000   120.000000     0.000000     0.000000    -1.000000     0.500000     0.500000     0.000000
    7     1.000000   120.000000     0.000000     0.000000     1.000000     0.000000     0.500000     0.000000
    8    -1.000000   120.000000     0.000000     0.000000     1.000000     0.000000     0.500000     0.000000
    9     1.000000   180.000000     0.500000    -0.866025     0.000000     0.000000     0.500000     0.000000
   10    -1.000000   180.000000     0.500000    -0.866025     0.000000     0.000000     0.500000     0.000000
   11     1.000000   180.000000    -0.500000    -0.866025     0.000000     0.500000     0.500000     0.000000
   12    -1.000000   180.000000    -0.500000    -0.866025     0.000000     0.500000     0.500000     0.000000
 
 Subroutine IBZKPT returns following result:
 ===========================================
 
 Found     37 irreducible k-points:
 
 Following reciprocal coordinates:
            Coordinates               Weight
  0.000000  0.000000  0.000000      1.000000
  0.055556  0.000000  0.000000      6.000000
  0.111111  0.000000  0.000000      6.000000
  0.166667  0.000000  0.000000      6.000000
  0.222222  0.000000  0.000000      6.000000
  0.277778  0.000000  0.000000      6.000000
  0.333333  0.000000  0.000000      6.000000
  0.388889  0.000000  0.000000      6.000000
  0.444444  0.000000  0.000000      6.000000
  0.500000  0.000000  0.000000      3.000000
  0.055556  0.055556  0.000000      6.000000
  0.111111  0.055556  0.000000     12.000000
  0.166667  0.055556  0.000000     12.000000
  0.222222  0.055556  0.000000     12.000000
  0.277778  0.055556  0.000000     12.000000
  0.333333  0.055556  0.000000     12.000000
  0.388889  0.055556  0.000000     12.000000
  0.444444  0.055556  0.000000     12.000000
  0.111111  0.111111  0.000000      6.000000
  0.166667  0.111111  0.000000     12.000000
  0.222222  0.111111  0.000000     12.000000
  0.277778  0.111111  0.000000     12.000000
  0.333333  0.111111  0.000000     12.000000
  0.388889  0.111111  0.000000     12.000000
  0.444444  0.111111  0.000000      6.000000
  0.166667  0.166667  0.000000      6.000000
  0.222222  0.166667  0.000000     12.000000
  0.277778  0.166667  0.000000     12.000000
  0.333333  0.166667  0.000000     12.000000
  0.388889  0.166667  0.000000     12.000000
  0.222222  0.222222  0.000000      6.000000
  0.277778  0.222222  0.000000     12.000000
  0.333333  0.222222  0.000000     12.000000
  0.388889  0.222222  0.000000      6.000000
  0.277778  0.277778  0.000000      6.000000
  0.333333  0.277778  0.000000     12.000000
  0.333333  0.333333  0.000000      2.000000
 
 Following cartesian coordinates:
            Coordinates               Weight
  0.000000  0.000000  0.000000      1.000000
  0.015661  0.009042  0.000000      6.000000
  0.031322  0.018084  0.000000      6.000000
  0.046983  0.027126  0.000000      6.000000
  0.062644  0.036167  0.000000      6.000000
  0.078305  0.045209  0.000000      6.000000
  0.093966  0.054251  0.000000      6.000000
  0.109627  0.063293  0.000000      6.000000
  0.125288  0.072335  0.000000      6.000000
  0.140949  0.081377  0.000000      3.000000
  0.015661  0.027126  0.000000      6.000000
  0.031322  0.036167  0.000000     12.000000
  0.046983  0.045209  0.000000     12.000000
  0.062644  0.054251  0.000000     12.000000
  0.078305  0.063293  0.000000     12.000000
  0.093966  0.072335  0.000000     12.000000
  0.109627  0.081377  0.000000     12.000000
  0.125288  0.090419  0.000000     12.000000
  0.031322  0.054251  0.000000      6.000000
  0.046983  0.063293  0.000000     12.000000
  0.062644  0.072335  0.000000     12.000000
  0.078305  0.081377  0.000000     12.000000
  0.093966  0.090419  0.000000     12.000000
  0.109627  0.099460  0.000000     12.000000
  0.125288  0.108502  0.000000      6.000000
  0.046983  0.081377  0.000000      6.000000
  0.062644  0.090419  0.000000     12.000000
  0.078305  0.099460  0.000000     12.000000
  0.093966  0.108502  0.000000     12.000000
  0.109627  0.117544  0.000000     12.000000
  0.062644  0.108502  0.000000      6.000000
  0.078305  0.117544  0.000000     12.000000
  0.093966  0.126586  0.000000     12.000000
  0.109627  0.135628  0.000000      6.000000
  0.078305  0.135628  0.000000      6.000000
  0.093966  0.144670  0.000000     12.000000
  0.093966  0.162753  0.000000      2.000000
 
 TETIRR: Found    169 inequivalent tetrahedra from     1944
 
 Subroutine IBZKPT_HF returns following result:
 ==============================================
 
 Found    324 k-points in 1st BZ
 the following    324 k-points will be used (e.g. in the exchange kernel)
 Following reciprocal coordinates:   # in IRBZ
  0.000000  0.000000  0.000000    0.00308642   1 t-inv F
  0.055556  0.000000  0.000000    0.00308642   2 t-inv F
  0.111111  0.000000  0.000000    0.00308642   3 t-inv F
  0.166667  0.000000  0.000000    0.00308642   4 t-inv F
  0.222222  0.000000  0.000000    0.00308642   5 t-inv F
  0.277778  0.000000  0.000000    0.00308642   6 t-inv F
  0.333333  0.000000  0.000000    0.00308642   7 t-inv F
  0.388889  0.000000  0.000000    0.00308642   8 t-inv F
  0.444444  0.000000  0.000000    0.00308642   9 t-inv F
  0.500000  0.000000  0.000000    0.00308642  10 t-inv F
  0.055556  0.055556  0.000000    0.00308642  11 t-inv F
  0.111111  0.055556  0.000000    0.00308642  12 t-inv F
  0.166667  0.055556  0.000000    0.00308642  13 t-inv F
  0.222222  0.055556  0.000000    0.00308642  14 t-inv F
  0.277778  0.055556  0.000000    0.00308642  15 t-inv F
  0.333333  0.055556  0.000000    0.00308642  16 t-inv F
  0.388889  0.055556  0.000000    0.00308642  17 t-inv F
  0.444444  0.055556  0.000000    0.00308642  18 t-inv F
  0.111111  0.111111  0.000000    0.00308642  19 t-inv F
  0.166667  0.111111  0.000000    0.00308642  20 t-inv F
  0.222222  0.111111  0.000000    0.00308642  21 t-inv F
  0.277778  0.111111  0.000000    0.00308642  22 t-inv F
  0.333333  0.111111  0.000000    0.00308642  23 t-inv F
  0.388889  0.111111  0.000000    0.00308642  24 t-inv F
  0.444444  0.111111  0.000000    0.00308642  25 t-inv F
  0.166667  0.166667  0.000000    0.00308642  26 t-inv F
  0.222222  0.166667  0.000000    0.00308642  27 t-inv F
  0.277778  0.166667  0.000000    0.00308642  28 t-inv F
  0.333333  0.166667  0.000000    0.00308642  29 t-inv F
  0.388889  0.166667  0.000000    0.00308642  30 t-inv F
  0.222222  0.222222  0.000000    0.00308642  31 t-inv F
  0.277778  0.222222  0.000000    0.00308642  32 t-inv F
  0.333333  0.222222  0.000000    0.00308642  33 t-inv F
  0.388889  0.222222  0.000000    0.00308642  34 t-inv F
  0.277778  0.277778  0.000000    0.00308642  35 t-inv F
  0.333333  0.277778  0.000000    0.00308642  36 t-inv F
  0.333333  0.333333  0.000000    0.00308642  37 t-inv F
 -0.055556 -0.000000 -0.000000    0.00308642   2 t-inv F
  0.055556 -0.055556 -0.000000    0.00308642   2 t-inv F
 -0.055556  0.055556  0.000000    0.00308642   2 t-inv F
  0.000000 -0.055556  0.000000    0.00308642   2 t-inv F
 -0.000000  0.055556 -0.000000    0.00308642   2 t-inv F
 -0.111111 -0.000000 -0.000000    0.00308642   3 t-inv F
  0.111111 -0.111111 -0.000000    0.00308642   3 t-inv F
 -0.111111  0.111111  0.000000    0.00308642   3 t-inv F
  0.000000 -0.111111  0.000000    0.00308642   3 t-inv F
 -0.000000  0.111111 -0.000000    0.00308642   3 t-inv F
 -0.166667 -0.000000 -0.000000    0.00308642   4 t-inv F
  0.166667 -0.166667 -0.000000    0.00308642   4 t-inv F
 -0.166667  0.166667  0.000000    0.00308642   4 t-inv F
  0.000000 -0.166667  0.000000    0.00308642   4 t-inv F
 -0.000000  0.166667 -0.000000    0.00308642   4 t-inv F
 -0.222222 -0.000000 -0.000000    0.00308642   5 t-inv F
  0.222222 -0.222222 -0.000000    0.00308642   5 t-inv F
 -0.222222  0.222222  0.000000    0.00308642   5 t-inv F
  0.000000 -0.222222  0.000000    0.00308642   5 t-inv F
 -0.000000  0.222222 -0.000000    0.00308642   5 t-inv F
 -0.277778 -0.000000 -0.000000    0.00308642   6 t-inv F
  0.277778 -0.277778 -0.000000    0.00308642   6 t-inv F
 -0.277778  0.277778  0.000000    0.00308642   6 t-inv F
  0.000000 -0.277778  0.000000    0.00308642   6 t-inv F
 -0.000000  0.277778 -0.000000    0.00308642   6 t-inv F
 -0.333333 -0.000000 -0.000000    0.00308642   7 t-inv F
  0.333333 -0.333333 -0.000000    0.00308642   7 t-inv F
 -0.333333  0.333333  0.000000    0.00308642   7 t-inv F
  0.000000 -0.333333  0.000000    0.00308642   7 t-inv F
 -0.000000  0.333333 -0.000000    0.00308642   7 t-inv F
 -0.388889 -0.000000 -0.000000    0.00308642   8 t-inv F
  0.388889 -0.388889 -0.000000    0.00308642   8 t-inv F
 -0.388889  0.388889  0.000000    0.00308642   8 t-inv F
  0.000000 -0.388889  0.000000    0.00308642   8 t-inv F
 -0.000000  0.388889 -0.000000    0.00308642   8 t-inv F
 -0.444444 -0.000000 -0.000000    0.00308642   9 t-inv F
  0.444444 -0.444444 -0.000000    0.00308642   9 t-inv F
 -0.444444  0.444444  0.000000    0.00308642   9 t-inv F
  0.000000 -0.444444  0.000000    0.00308642   9 t-inv F
 -0.000000  0.444444 -0.000000    0.00308642   9 t-inv F
  0.500000 -0.500000 -0.000000    0.00308642  10 t-inv F
  0.000000 -0.500000  0.000000    0.00308642  10 t-inv F
 -0.055556 -0.055556 -0.000000    0.00308642  11 t-inv F
  0.055556 -0.111111 -0.000000    0.00308642  11 t-inv F
 -0.055556  0.111111  0.000000    0.00308642  11 t-inv F
 -0.111111  0.055556  0.000000    0.00308642  11 t-inv F
  0.111111 -0.055556 -0.000000    0.00308642  11 t-inv F
 -0.111111 -0.055556 -0.000000    0.00308642  12 t-inv F
  0.111111 -0.166667 -0.000000    0.00308642  12 t-inv F
 -0.111111  0.166667  0.000000    0.00308642  12 t-inv F
 -0.166667  0.111111  0.000000    0.00308642  12 t-inv F
  0.166667 -0.111111 -0.000000    0.00308642  12 t-inv F
  0.055556 -0.166667  0.000000    0.00308642  12 t-inv F
 -0.055556  0.166667 -0.000000    0.00308642  12 t-inv F
 -0.166667  0.055556 -0.000000    0.00308642  12 t-inv F
  0.166667 -0.055556  0.000000    0.00308642  12 t-inv F
  0.055556  0.111111 -0.000000    0.00308642  12 t-inv F
 -0.055556 -0.111111  0.000000    0.00308642  12 t-inv F
 -0.166667 -0.055556 -0.000000    0.00308642  13 t-inv F
  0.166667 -0.222222 -0.000000    0.00308642  13 t-inv F
 -0.166667  0.222222  0.000000    0.00308642  13 t-inv F
 -0.222222  0.166667  0.000000    0.00308642  13 t-inv F
  0.222222 -0.166667 -0.000000    0.00308642  13 t-inv F
  0.055556 -0.222222  0.000000    0.00308642  13 t-inv F
 -0.055556  0.222222 -0.000000    0.00308642  13 t-inv F
 -0.222222  0.055556 -0.000000    0.00308642  13 t-inv F
  0.222222 -0.055556  0.000000    0.00308642  13 t-inv F
  0.055556  0.166667 -0.000000    0.00308642  13 t-inv F
 -0.055556 -0.166667  0.000000    0.00308642  13 t-inv F
 -0.222222 -0.055556 -0.000000    0.00308642  14 t-inv F
  0.222222 -0.277778 -0.000000    0.00308642  14 t-inv F
 -0.222222  0.277778  0.000000    0.00308642  14 t-inv F
 -0.277778  0.222222  0.000000    0.00308642  14 t-inv F
  0.277778 -0.222222 -0.000000    0.00308642  14 t-inv F
  0.055556 -0.277778  0.000000    0.00308642  14 t-inv F
 -0.055556  0.277778 -0.000000    0.00308642  14 t-inv F
 -0.277778  0.055556 -0.000000    0.00308642  14 t-inv F
  0.277778 -0.055556  0.000000    0.00308642  14 t-inv F
  0.055556  0.222222 -0.000000    0.00308642  14 t-inv F
 -0.055556 -0.222222  0.000000    0.00308642  14 t-inv F
 -0.277778 -0.055556 -0.000000    0.00308642  15 t-inv F
  0.277778 -0.333333 -0.000000    0.00308642  15 t-inv F
 -0.277778  0.333333  0.000000    0.00308642  15 t-inv F
 -0.333333  0.277778  0.000000    0.00308642  15 t-inv F
  0.333333 -0.277778 -0.000000    0.00308642  15 t-inv F
  0.055556 -0.333333  0.000000    0.00308642  15 t-inv F
 -0.055556  0.333333 -0.000000    0.00308642  15 t-inv F
 -0.333333  0.055556 -0.000000    0.00308642  15 t-inv F
  0.333333 -0.055556  0.000000    0.00308642  15 t-inv F
  0.055556  0.277778 -0.000000    0.00308642  15 t-inv F
 -0.055556 -0.277778  0.000000    0.00308642  15 t-inv F
 -0.333333 -0.055556 -0.000000    0.00308642  16 t-inv F
  0.333333 -0.388889 -0.000000    0.00308642  16 t-inv F
 -0.333333  0.388889  0.000000    0.00308642  16 t-inv F
 -0.388889  0.333333  0.000000    0.00308642  16 t-inv F
  0.388889 -0.333333 -0.000000    0.00308642  16 t-inv F
  0.055556 -0.388889  0.000000    0.00308642  16 t-inv F
 -0.055556  0.388889 -0.000000    0.00308642  16 t-inv F
 -0.388889  0.055556 -0.000000    0.00308642  16 t-inv F
  0.388889 -0.055556  0.000000    0.00308642  16 t-inv F
  0.055556  0.333333 -0.000000    0.00308642  16 t-inv F
 -0.055556 -0.333333  0.000000    0.00308642  16 t-inv F
 -0.388889 -0.055556 -0.000000    0.00308642  17 t-inv F
  0.388889 -0.444444 -0.000000    0.00308642  17 t-inv F
 -0.388889  0.444444  0.000000    0.00308642  17 t-inv F
 -0.444444  0.388889  0.000000    0.00308642  17 t-inv F
  0.444444 -0.388889 -0.000000    0.00308642  17 t-inv F
  0.055556 -0.444444  0.000000    0.00308642  17 t-inv F
 -0.055556  0.444444 -0.000000    0.00308642  17 t-inv F
 -0.444444  0.055556 -0.000000    0.00308642  17 t-inv F
  0.444444 -0.055556  0.000000    0.00308642  17 t-inv F
  0.055556  0.388889 -0.000000    0.00308642  17 t-inv F
 -0.055556 -0.388889  0.000000    0.00308642  17 t-inv F
 -0.444444 -0.055556 -0.000000    0.00308642  18 t-inv F
  0.444444 -0.500000 -0.000000    0.00308642  18 t-inv F
 -0.444444  0.500000  0.000000    0.00308642  18 t-inv F
 -0.500000  0.444444  0.000000    0.00308642  18 t-inv F
  0.500000 -0.444444 -0.000000    0.00308642  18 t-inv F
  0.055556 -0.500000  0.000000    0.00308642  18 t-inv F
 -0.055556  0.500000 -0.000000    0.00308642  18 t-inv F
 -0.500000  0.055556 -0.000000    0.00308642  18 t-inv F
  0.500000 -0.055556  0.000000    0.00308642  18 t-inv F
  0.055556  0.444444 -0.000000    0.00308642  18 t-inv F
 -0.055556 -0.444444  0.000000    0.00308642  18 t-inv F
 -0.111111 -0.111111 -0.000000    0.00308642  19 t-inv F
  0.111111 -0.222222 -0.000000    0.00308642  19 t-inv F
 -0.111111  0.222222  0.000000    0.00308642  19 t-inv F
 -0.222222  0.111111  0.000000    0.00308642  19 t-inv F
  0.222222 -0.111111 -0.000000    0.00308642  19 t-inv F
 -0.166667 -0.111111 -0.000000    0.00308642  20 t-inv F
  0.166667 -0.277778 -0.000000    0.00308642  20 t-inv F
 -0.166667  0.277778  0.000000    0.00308642  20 t-inv F
 -0.277778  0.166667  0.000000    0.00308642  20 t-inv F
  0.277778 -0.166667 -0.000000    0.00308642  20 t-inv F
  0.111111 -0.277778  0.000000    0.00308642  20 t-inv F
 -0.111111  0.277778 -0.000000    0.00308642  20 t-inv F
 -0.277778  0.111111 -0.000000    0.00308642  20 t-inv F
  0.277778 -0.111111  0.000000    0.00308642  20 t-inv F
  0.111111  0.166667 -0.000000    0.00308642  20 t-inv F
 -0.111111 -0.166667  0.000000    0.00308642  20 t-inv F
 -0.222222 -0.111111 -0.000000    0.00308642  21 t-inv F
  0.222222 -0.333333 -0.000000    0.00308642  21 t-inv F
 -0.222222  0.333333  0.000000    0.00308642  21 t-inv F
 -0.333333  0.222222  0.000000    0.00308642  21 t-inv F
  0.333333 -0.222222 -0.000000    0.00308642  21 t-inv F
  0.111111 -0.333333  0.000000    0.00308642  21 t-inv F
 -0.111111  0.333333 -0.000000    0.00308642  21 t-inv F
 -0.333333  0.111111 -0.000000    0.00308642  21 t-inv F
  0.333333 -0.111111  0.000000    0.00308642  21 t-inv F
  0.111111  0.222222 -0.000000    0.00308642  21 t-inv F
 -0.111111 -0.222222  0.000000    0.00308642  21 t-inv F
 -0.277778 -0.111111 -0.000000    0.00308642  22 t-inv F
  0.277778 -0.388889 -0.000000    0.00308642  22 t-inv F
 -0.277778  0.388889  0.000000    0.00308642  22 t-inv F
 -0.388889  0.277778  0.000000    0.00308642  22 t-inv F
  0.388889 -0.277778 -0.000000    0.00308642  22 t-inv F
  0.111111 -0.388889  0.000000    0.00308642  22 t-inv F
 -0.111111  0.388889 -0.000000    0.00308642  22 t-inv F
 -0.388889  0.111111 -0.000000    0.00308642  22 t-inv F
  0.388889 -0.111111  0.000000    0.00308642  22 t-inv F
  0.111111  0.277778 -0.000000    0.00308642  22 t-inv F
 -0.111111 -0.277778  0.000000    0.00308642  22 t-inv F
 -0.333333 -0.111111 -0.000000    0.00308642  23 t-inv F
  0.333333 -0.444444 -0.000000    0.00308642  23 t-inv F
 -0.333333  0.444444  0.000000    0.00308642  23 t-inv F
 -0.444444  0.333333  0.000000    0.00308642  23 t-inv F
  0.444444 -0.333333 -0.000000    0.00308642  23 t-inv F
  0.111111 -0.444444  0.000000    0.00308642  23 t-inv F
 -0.111111  0.444444 -0.000000    0.00308642  23 t-inv F
 -0.444444  0.111111 -0.000000    0.00308642  23 t-inv F
  0.444444 -0.111111  0.000000    0.00308642  23 t-inv F
  0.111111  0.333333 -0.000000    0.00308642  23 t-inv F
 -0.111111 -0.333333  0.000000    0.00308642  23 t-inv F
 -0.388889 -0.111111 -0.000000    0.00308642  24 t-inv F
  0.388889 -0.500000 -0.000000    0.00308642  24 t-inv F
 -0.388889  0.500000  0.000000    0.00308642  24 t-inv F
 -0.500000  0.388889  0.000000    0.00308642  24 t-inv F
  0.500000 -0.388889 -0.000000    0.00308642  24 t-inv F
  0.111111 -0.500000  0.000000    0.00308642  24 t-inv F
 -0.111111  0.500000 -0.000000    0.00308642  24 t-inv F
 -0.500000  0.111111 -0.000000    0.00308642  24 t-inv F
  0.500000 -0.111111  0.000000    0.00308642  24 t-inv F
  0.111111  0.388889 -0.000000    0.00308642  24 t-inv F
 -0.111111 -0.388889  0.000000    0.00308642  24 t-inv F
 -0.444444 -0.111111 -0.000000    0.00308642  25 t-inv F
  0.444444 -0.555556 -0.000000    0.00308642  25 t-inv F
 -0.444444  0.555556  0.000000    0.00308642  25 t-inv F
  0.111111 -0.555556  0.000000    0.00308642  25 t-inv F
 -0.111111  0.555556 -0.000000    0.00308642  25 t-inv F
 -0.166667 -0.166667 -0.000000    0.00308642  26 t-inv F
  0.166667 -0.333333 -0.000000    0.00308642  26 t-inv F
 -0.166667  0.333333  0.000000    0.00308642  26 t-inv F
 -0.333333  0.166667  0.000000    0.00308642  26 t-inv F
  0.333333 -0.166667 -0.000000    0.00308642  26 t-inv F
 -0.222222 -0.166667 -0.000000    0.00308642  27 t-inv F
  0.222222 -0.388889 -0.000000    0.00308642  27 t-inv F
 -0.222222  0.388889  0.000000    0.00308642  27 t-inv F
 -0.388889  0.222222  0.000000    0.00308642  27 t-inv F
  0.388889 -0.222222 -0.000000    0.00308642  27 t-inv F
  0.166667 -0.388889  0.000000    0.00308642  27 t-inv F
 -0.166667  0.388889 -0.000000    0.00308642  27 t-inv F
 -0.388889  0.166667 -0.000000    0.00308642  27 t-inv F
  0.388889 -0.166667  0.000000    0.00308642  27 t-inv F
  0.166667  0.222222 -0.000000    0.00308642  27 t-inv F
 -0.166667 -0.222222  0.000000    0.00308642  27 t-inv F
 -0.277778 -0.166667 -0.000000    0.00308642  28 t-inv F
  0.277778 -0.444444 -0.000000    0.00308642  28 t-inv F
 -0.277778  0.444444  0.000000    0.00308642  28 t-inv F
 -0.444444  0.277778  0.000000    0.00308642  28 t-inv F
  0.444444 -0.277778 -0.000000    0.00308642  28 t-inv F
  0.166667 -0.444444  0.000000    0.00308642  28 t-inv F
 -0.166667  0.444444 -0.000000    0.00308642  28 t-inv F
 -0.444444  0.166667 -0.000000    0.00308642  28 t-inv F
  0.444444 -0.166667  0.000000    0.00308642  28 t-inv F
  0.166667  0.277778 -0.000000    0.00308642  28 t-inv F
 -0.166667 -0.277778  0.000000    0.00308642  28 t-inv F
 -0.333333 -0.166667 -0.000000    0.00308642  29 t-inv F
  0.333333 -0.500000 -0.000000    0.00308642  29 t-inv F
 -0.333333  0.500000  0.000000    0.00308642  29 t-inv F
 -0.500000  0.333333  0.000000    0.00308642  29 t-inv F
  0.500000 -0.333333 -0.000000    0.00308642  29 t-inv F
  0.166667 -0.500000  0.000000    0.00308642  29 t-inv F
 -0.166667  0.500000 -0.000000    0.00308642  29 t-inv F
 -0.500000  0.166667 -0.000000    0.00308642  29 t-inv F
  0.500000 -0.166667  0.000000    0.00308642  29 t-inv F
  0.166667  0.333333 -0.000000    0.00308642  29 t-inv F
 -0.166667 -0.333333  0.000000    0.00308642  29 t-inv F
 -0.388889 -0.166667 -0.000000    0.00308642  30 t-inv F
  0.388889 -0.555556 -0.000000    0.00308642  30 t-inv F
 -0.388889  0.555556  0.000000    0.00308642  30 t-inv F
 -0.555556  0.388889  0.000000    0.00308642  30 t-inv F
  0.555556 -0.388889 -0.000000    0.00308642  30 t-inv F
  0.166667 -0.555556  0.000000    0.00308642  30 t-inv F
 -0.166667  0.555556 -0.000000    0.00308642  30 t-inv F
 -0.555556  0.166667 -0.000000    0.00308642  30 t-inv F
  0.555556 -0.166667  0.000000    0.00308642  30 t-inv F
  0.166667  0.388889 -0.000000    0.00308642  30 t-inv F
 -0.166667 -0.388889  0.000000    0.00308642  30 t-inv F
 -0.222222 -0.222222 -0.000000    0.00308642  31 t-inv F
  0.222222 -0.444444 -0.000000    0.00308642  31 t-inv F
 -0.222222  0.444444  0.000000    0.00308642  31 t-inv F
 -0.444444  0.222222  0.000000    0.00308642  31 t-inv F
  0.444444 -0.222222 -0.000000    0.00308642  31 t-inv F
 -0.277778 -0.222222 -0.000000    0.00308642  32 t-inv F
  0.277778 -0.500000 -0.000000    0.00308642  32 t-inv F
 -0.277778  0.500000  0.000000    0.00308642  32 t-inv F
 -0.500000  0.277778  0.000000    0.00308642  32 t-inv F
  0.500000 -0.277778 -0.000000    0.00308642  32 t-inv F
  0.222222 -0.500000  0.000000    0.00308642  32 t-inv F
 -0.222222  0.500000 -0.000000    0.00308642  32 t-inv F
 -0.500000  0.222222 -0.000000    0.00308642  32 t-inv F
  0.500000 -0.222222  0.000000    0.00308642  32 t-inv F
  0.222222  0.277778 -0.000000    0.00308642  32 t-inv F
 -0.222222 -0.277778  0.000000    0.00308642  32 t-inv F
 -0.333333 -0.222222 -0.000000    0.00308642  33 t-inv F
  0.333333 -0.555556 -0.000000    0.00308642  33 t-inv F
 -0.333333  0.555556  0.000000    0.00308642  33 t-inv F
 -0.555556  0.333333  0.000000    0.00308642  33 t-inv F
  0.555556 -0.333333 -0.000000    0.00308642  33 t-inv F
  0.222222 -0.555556  0.000000    0.00308642  33 t-inv F
 -0.222222  0.555556 -0.000000    0.00308642  33 t-inv F
 -0.555556  0.222222 -0.000000    0.00308642  33 t-inv F
  0.555556 -0.222222  0.000000    0.00308642  33 t-inv F
  0.222222  0.333333 -0.000000    0.00308642  33 t-inv F
 -0.222222 -0.333333  0.000000    0.00308642  33 t-inv F
 -0.388889 -0.222222 -0.000000    0.00308642  34 t-inv F
  0.388889 -0.611111 -0.000000    0.00308642  34 t-inv F
 -0.388889  0.611111  0.000000    0.00308642  34 t-inv F
  0.222222 -0.611111  0.000000    0.00308642  34 t-inv F
 -0.222222  0.611111 -0.000000    0.00308642  34 t-inv F
 -0.277778 -0.277778 -0.000000    0.00308642  35 t-inv F
  0.277778 -0.555556 -0.000000    0.00308642  35 t-inv F
 -0.277778  0.555556  0.000000    0.00308642  35 t-inv F
 -0.555556  0.277778  0.000000    0.00308642  35 t-inv F
  0.555556 -0.277778 -0.000000    0.00308642  35 t-inv F
 -0.333333 -0.277778 -0.000000    0.00308642  36 t-inv F
  0.333333 -0.611111 -0.000000    0.00308642  36 t-inv F
 -0.333333  0.611111  0.000000    0.00308642  36 t-inv F
 -0.611111  0.333333  0.000000    0.00308642  36 t-inv F
  0.611111 -0.333333 -0.000000    0.00308642  36 t-inv F
  0.277778 -0.611111  0.000000    0.00308642  36 t-inv F
 -0.277778  0.611111 -0.000000    0.00308642  36 t-inv F
 -0.611111  0.277778 -0.000000    0.00308642  36 t-inv F
  0.611111 -0.277778  0.000000    0.00308642  36 t-inv F
  0.277778  0.333333 -0.000000    0.00308642  36 t-inv F
 -0.277778 -0.333333  0.000000    0.00308642  36 t-inv F
 -0.333333 -0.333333 -0.000000    0.00308642  37 t-inv F


--------------------------------------------------------------------------------------------------------




 Dimension of arrays:
   k-points           NKPTS =     37   k-points in BZ     NKDIM =     37   number of bands    NBANDS=     84
   number of dos      NEDOS =    301   number of ions     NIONS =     12
   non local maximal  LDIM  =     11   non local SUM 2l+1 LMDIM =     41
   total plane-waves  NPLWV = 184320
   max r-space proj   IRMAX =      1   max aug-charges    IRDMAX=  19872
   dimension x,y,z NGX =    24 NGY =   24 NGZ =  320
   dimension x,y,z NGXF=    48 NGYF=   48 NGZF=  640
   support grid    NGXF=    48 NGYF=   48 NGZF=  640
   ions per type =               4   8
 NGX,Y,Z   is equivalent  to a cutoff of  11.25, 11.25, 10.64 a.u.
 NGXF,Y,Z  is equivalent  to a cutoff of  22.49, 22.49, 21.28 a.u.


 I would recommend the setting:
   dimension x,y,z NGX =    21 NGY =   21 NGZ =  303
 SYSTEM =  unknown system                          
 POSCAR =  Mo Te                                   

 Startparameter for this run:
   NWRITE =      2    write-flag & timer
   PREC   = accura    normal or accurate (medium, high low for compatibility)
   ISTART =      0    job   : 0-new  1-cont  2-samecut
   ICHARG =      2    charge: 1-file 2-atom 10-const
   ISPIN  =      1    spin polarized calculation?
   LNONCOLLINEAR =      F non collinear calculations
   LSORBIT =      F    spin-orbit coupling
   INIWAV =      1    electr: 0-lowe 1-rand  2-diag
   LASPH  =      F    aspherical Exc in radial PAW
   METAGGA=      F    non-selfconsistent MetaGGA calc.

 Electronic Relaxation 1
   ENCUT  =  344.9 eV  25.35 Ry    5.03 a.u.   5.37  5.37 75.72*2*pi/ulx,y,z
   ENINI  =  344.9     initial cutoff
   ENAUG  =  964.7 eV  augmentation charge cutoff
   NELM   =     60;   NELMIN=  5; NELMDL= -5     # of ELM steps 
   EDIFF  = 0.1E-07   stopping-criterion for ELM
   LREAL  =      F    real-space projection
   NLSPLINE    = F    spline interpolate recip. space projectors
   LCOMPAT=      F    compatible to vasp.4.4
   GGA_COMPAT  = T    GGA compatible to vasp.4.4-vasp.4.6
   LMAXPAW     = -100 max onsite density
   LMAXMIX     =    2 max onsite mixed and CHGCAR
   VOSKOWN=      0    Vosko Wilk Nusair interpolation
   ROPT   =    0.00000   0.00000
 Ionic relaxation
   EDIFFG = 0.1E-06   stopping-criterion for IOM
   NSW    =      0    number of steps for IOM
   NBLOCK =      1;   KBLOCK =      1    inner block; outer block 
   IBRION =     -1    ionic relax: 0-MD 1-quasi-New 2-CG
   NFREE  =      0    steps in history (QN), initial steepest desc. (CG)
   ISIF   =      2    stress and relaxation
   IWAVPR =     10    prediction:  0-non 1-charg 2-wave 3-comb
   ISYM   =      2    0-nonsym 1-usesym 2-fastsym
   LCORR  =      T    Harris-Foulkes like correction to forces

   POTIM  = 0.5000    time-step for ionic-motion
   TEIN   =    0.0    initial temperature
   TEBEG  =    0.0;   TEEND  =   0.0 temperature during run
   SMASS  =  -3.00    Nose mass-parameter (am)
   estimated Nose-frequenzy (Omega)   =  0.10E-29 period in steps =****** mass=  -0.288E-27a.u.
   SCALEE = 1.0000    scale energy and forces
   NPACO  =    256;   APACO  = 16.0  distance and # of slots for P.C.
   PSTRESS=    0.0 pullay stress

  Mass of Ions in am
   POMASS =  95.94127.60
  Ionic Valenz
   ZVAL   =  14.00  6.00
  Atomic Wigner-Seitz radii
   RWIGS  =  -1.00 -1.00
  virtual crystal weights 
   VCA    =   1.00  1.00
   NELECT =     104.0000    total number of electrons
   NUPDOWN=      -1.0000    fix difference up-down

 DOS related values:
   EMIN   =  10.00;   EMAX   =-10.00  energy-range for DOS
   EFERMI =   0.00
   ISMEAR =    -5;   SIGMA  =   0.01  broadening in eV -4-tet -1-fermi 0-gaus

 Electronic relaxation 2 (details)
   IALGO  =     38    algorithm
   LDIAG  =      T    sub-space diagonalisation (order eigenvalues)
   LSUBROT=      F    optimize rotation matrix (better conditioning)
   TURBO    =      0    0=normal 1=particle mesh
   IRESTART =      0    0=no restart 2=restart with 2 vectors
   NREBOOT  =      0    no. of reboots
   NMIN     =      0    reboot dimension
   EREF     =   0.00    reference energy to select bands
   IMIX   =      4    mixing-type and parameters
     AMIX     =   0.40;   BMIX     =  1.00
     AMIX_MAG =   1.60;   BMIX_MAG =  1.00
     AMIN     =   0.10
     WC   =   100.;   INIMIX=   1;  MIXPRE=   1;  MAXMIX= -45

 Intra band minimization:
   WEIMIN = 0.0000     energy-eigenvalue tresh-hold
   EBREAK =  0.30E-10  absolut break condition
   DEPER  =   0.30     relativ break condition  

   TIME   =   0.40     timestep for ELM

  volume/ion in A,a.u.               =      45.41       306.43
  Fermi-wavevector in a.u.,A,eV,Ry     =   0.942568  1.781196 12.087897  0.888435
  Thomas-Fermi vector in A             =   2.070191
 
 Write flags
   LWAVE  =      T    write WAVECAR
   LCHARG =      T    write CHGCAR
   LVTOT  =      F    write LOCPOT, total local potential
   LVHAR  =      F    write LOCPOT, Hartree potential only
   LELF   =      F    write electronic localiz. function (ELF)
   LORBIT =      0    0 simple, 1 ext, 2 COOP (PROOUT)


 Dipole corrections
   LMONO  =      F    monopole corrections only (constant potential shift)
   LDIPOL =      F    correct potential (dipole corrections)
   IDIPOL =      0    1-x, 2-y, 3-z, 4-all directions 
   EPSILON=  1.0000000 bulk dielectric constant

 Exchange correlation treatment:
   GGA     =    PE    GGA type
   LEXCH   =     8    internal setting for exchange type
   VOSKOWN=      0    Vosko Wilk Nusair interpolation
   LHFCALC =     F    Hartree Fock is set to
   LHFONE  =     F    Hartree Fock one center treatment
   AEXX    =    0.0000 exact exchange contribution

 Linear response parameters
   LEPSILON=     T    determine dielectric tensor
   LRPA    =     F    only Hartree local field effects (RPA)
   LNABLA  =     F    use nabla operator in PAW spheres
   LVEL    =     F    velocity operator in full k-point grid
   LINTERFAST=   F  fast interpolation
   KINTER  =     0    interpolate to denser k-point grid
   CSHIFT  =0.1000    complex shift for real part using Kramers Kronig
   OMEGAMAX=  -1.0    maximum frequency
   DEG_THRESHOLD= 0.2000000E-02 threshold for treating states as degnerate
   RTIME   =    0.100 relaxation time in fs

 Orbital magnetization related:
   ORBITALMAG=     F  switch on orbital magnetization
   LCHIMAG   =     F  perturbation theory with respect to B field
   DQ        =  0.001000  dq finite difference perturbation B field



--------------------------------------------------------------------------------------------------------


 Static calculation
 charge density and potential will be updated during run
 non-spin polarized calculation
 Variant of blocked Davidson
 Davidson routine will perform the subspace rotation
 perform sub-space diagonalisation
    after iterative eigenvector-optimisation
 modified Broyden-mixing scheme, WC =      100.0
 initial mixing is a Kerker type mixing with AMIX =  0.4000 and BMIX =      1.0000
 Hartree-type preconditioning will be used
 using additional bands           32
 reciprocal scheme for non local part
 use partial core corrections
 calculate Harris-corrections to forces 
   (improved forces if not selfconsistent)
 use gradient corrections 
 use of overlap-Matrix (Vanderbilt PP)
 Fermi weights with tetrahedron method with Bloechl corrections


--------------------------------------------------------------------------------------------------------


  energy-cutoff  :      344.91
  volume of cell :      544.90
      direct lattice vectors                 reciprocal lattice vectors
     3.547392312  0.000000000  0.000000000     0.281897211  0.162753431  0.000000000
    -1.773696156  3.072131859  0.000000000     0.000000000  0.325506862  0.000000000
     0.000000000  0.000000000 50.000000000     0.000000000  0.000000000  0.020000000

  length of vectors
     3.547392312  3.547392312 50.000000000     0.325506862  0.325506862  0.020000000


 
 k-points in units of 2pi/SCALE and weight: KPOINTS created by Atomic Simulation Env
   0.00000000  0.00000000  0.00000000       0.003
   0.01566096  0.00904186  0.00000000       0.019
   0.03132191  0.01808371  0.00000000       0.019
   0.04698287  0.02712557  0.00000000       0.019
   0.06264382  0.03616743  0.00000000       0.019
   0.07830478  0.04520929  0.00000000       0.019
   0.09396574  0.05425114  0.00000000       0.019
   0.10962669  0.06329300  0.00000000       0.019
   0.12528765  0.07233486  0.00000000       0.019
   0.14094861  0.08137672  0.00000000       0.009
   0.01566096  0.02712557  0.00000000       0.019
   0.03132191  0.03616743  0.00000000       0.037
   0.04698287  0.04520929  0.00000000       0.037
   0.06264382  0.05425114  0.00000000       0.037
   0.07830478  0.06329300  0.00000000       0.037
   0.09396574  0.07233486  0.00000000       0.037
   0.10962669  0.08137672  0.00000000       0.037
   0.12528765  0.09041857  0.00000000       0.037
   0.03132191  0.05425114  0.00000000       0.019
   0.04698287  0.06329300  0.00000000       0.037
   0.06264382  0.07233486  0.00000000       0.037
   0.07830478  0.08137672  0.00000000       0.037
   0.09396574  0.09041857  0.00000000       0.037
   0.10962669  0.09946043  0.00000000       0.037
   0.12528765  0.10850229  0.00000000       0.019
   0.04698287  0.08137672  0.00000000       0.019
   0.06264382  0.09041857  0.00000000       0.037
   0.07830478  0.09946043  0.00000000       0.037
   0.09396574  0.10850229  0.00000000       0.037
   0.10962669  0.11754414  0.00000000       0.037
   0.06264382  0.10850229  0.00000000       0.019
   0.07830478  0.11754414  0.00000000       0.037
   0.09396574  0.12658600  0.00000000       0.037
   0.10962669  0.13562786  0.00000000       0.019
   0.07830478  0.13562786  0.00000000       0.019
   0.09396574  0.14466972  0.00000000       0.037
   0.09396574  0.16275343  0.00000000       0.006
 
 k-points in reciprocal lattice and weights: KPOINTS created by Atomic Simulation Env
   0.00000000  0.00000000  0.00000000       0.003
   0.05555556  0.00000000  0.00000000       0.019
   0.11111111  0.00000000  0.00000000       0.019
   0.16666667  0.00000000  0.00000000       0.019
   0.22222222  0.00000000  0.00000000       0.019
   0.27777778  0.00000000  0.00000000       0.019
   0.33333333  0.00000000  0.00000000       0.019
   0.38888889  0.00000000  0.00000000       0.019
   0.44444444  0.00000000  0.00000000       0.019
   0.50000000  0.00000000  0.00000000       0.009
   0.05555556  0.05555556  0.00000000       0.019
   0.11111111  0.05555556  0.00000000       0.037
   0.16666667  0.05555556  0.00000000       0.037
   0.22222222  0.05555556  0.00000000       0.037
   0.27777778  0.05555556  0.00000000       0.037
   0.33333333  0.05555556  0.00000000       0.037
   0.38888889  0.05555556  0.00000000       0.037
   0.44444444  0.05555556  0.00000000       0.037
   0.11111111  0.11111111  0.00000000       0.019
   0.16666667  0.11111111  0.00000000       0.037
   0.22222222  0.11111111  0.00000000       0.037
   0.27777778  0.11111111  0.00000000       0.037
   0.33333333  0.11111111  0.00000000       0.037
   0.38888889  0.11111111  0.00000000       0.037
   0.44444444  0.11111111  0.00000000       0.019
   0.16666667  0.16666667  0.00000000       0.019
   0.22222222  0.16666667  0.00000000       0.037
   0.27777778  0.16666667  0.00000000       0.037
   0.33333333  0.16666667  0.00000000       0.037
   0.38888889  0.16666667  0.00000000       0.037
   0.22222222  0.22222222  0.00000000       0.019
   0.27777778  0.22222222  0.00000000       0.037
   0.33333333  0.22222222  0.00000000       0.037
   0.38888889  0.22222222  0.00000000       0.019
   0.27777778  0.27777778  0.00000000       0.019
   0.33333333  0.27777778  0.00000000       0.037
   0.33333333  0.33333333  0.00000000       0.006
 
 position of ions in fractional coordinates (direct lattice) 
   0.16666667  0.33333333  0.29060000
   0.83333333  0.66666667  0.43020000
   0.16666667  0.33333333  0.56980000
   0.83333333  0.66666667  0.70940000
   0.83333333  0.66666667  0.32670200
   0.83333333  0.66666667  0.25449800
   0.16666667  0.33333333  0.46630200
   0.16666667  0.33333333  0.39409800
   0.83333333  0.66666667  0.60590200
   0.83333333  0.66666667  0.53369800
   0.16666667  0.33333333  0.74550200
   0.16666667  0.33333333  0.67329800
 
 position of ions in cartesian coordinates  (Angst):
  -0.00000000  1.02404395 14.53000000
   1.77369616  2.04808791 21.51000000
  -0.00000000  1.02404395 28.49000000
   1.77369616  2.04808791 35.47000000
   1.77369616  2.04808791 16.33510000
   1.77369616  2.04808791 12.72490000
  -0.00000000  1.02404395 23.31510000
  -0.00000000  1.02404395 19.70490000
   1.77369616  2.04808791 30.29510000
   1.77369616  2.04808791 26.68490000
  -0.00000000  1.02404395 37.27510000
  -0.00000000  1.02404395 33.66490000
 


--------------------------------------------------------------------------------------------------------


 k-point  1 :   0.0000 0.0000 0.0000  plane waves:    8059
 k-point  2 :   0.0556 0.0000 0.0000  plane waves:    8047
 k-point  3 :   0.1111 0.0000 0.0000  plane waves:    7995
 k-point  4 :   0.1667 0.0000 0.0000  plane waves:    7981
 k-point  5 :   0.2222 0.0000 0.0000  plane waves:    7967
 k-point  6 :   0.2778 0.0000 0.0000  plane waves:    7949
 k-point  7 :   0.3333 0.0000 0.0000  plane waves:    7895
 k-point  8 :   0.3889 0.0000 0.0000  plane waves:    7892
 k-point  9 :   0.4444 0.0000 0.0000  plane waves:    7900
 k-point 10 :   0.5000 0.0000 0.0000  plane waves:    7892
 k-point 11 :   0.0556 0.0556 0.0000  plane waves:    7977
 k-point 12 :   0.1111 0.0556 0.0000  plane waves:    7993
 k-point 13 :   0.1667 0.0556 0.0000  plane waves:    7982
 k-point 14 :   0.2222 0.0556 0.0000  plane waves:    7962
 k-point 15 :   0.2778 0.0556 0.0000  plane waves:    7921
 k-point 16 :   0.3333 0.0556 0.0000  plane waves:    7897
 k-point 17 :   0.3889 0.0556 0.0000  plane waves:    7896
 k-point 18 :   0.4444 0.0556 0.0000  plane waves:    7906
 k-point 19 :   0.1111 0.1111 0.0000  plane waves:    7975
 k-point 20 :   0.1667 0.1111 0.0000  plane waves:    7970
 k-point 21 :   0.2222 0.1111 0.0000  plane waves:    7936
 k-point 22 :   0.2778 0.1111 0.0000  plane waves:    7914
 k-point 23 :   0.3333 0.1111 0.0000  plane waves:    7914
 k-point 24 :   0.3889 0.1111 0.0000  plane waves:    7888
 k-point 25 :   0.4444 0.1111 0.0000  plane waves:    7900
 k-point 26 :   0.1667 0.1667 0.0000  plane waves:    7935
 k-point 27 :   0.2222 0.1667 0.0000  plane waves:    7910
 k-point 28 :   0.2778 0.1667 0.0000  plane waves:    7913
 k-point 29 :   0.3333 0.1667 0.0000  plane waves:    7908
 k-point 30 :   0.3889 0.1667 0.0000  plane waves:    7908
 k-point 31 :   0.2222 0.2222 0.0000  plane waves:    7893
 k-point 32 :   0.2778 0.2222 0.0000  plane waves:    7891
 k-point 33 :   0.3333 0.2222 0.0000  plane waves:    7911
 k-point 34 :   0.3889 0.2222 0.0000  plane waves:    7894
 k-point 35 :   0.2778 0.2778 0.0000  plane waves:    7895
 k-point 36 :   0.3333 0.2778 0.0000  plane waves:    7895
 k-point 37 :   0.3333 0.3333 0.0000  plane waves:    7902

 maximum and minimum number of plane-waves per node :      8059     7888

 maximum number of plane-waves:      8059
 maximum index in each direction: 
   IXMAX=    5   IYMAX=    5   IZMAX=   75
   IXMIN=   -5   IYMIN=   -5   IZMIN=  -75

 NGX is ok and might be reduce to  22
 NGY is ok and might be reduce to  22
 NGZ is ok and might be reduce to 302

 serial   3D FFT for wavefunctions
 parallel 3D FFT for charge:
    minimum data exchange during FFTs selected (reduces bandwidth)


 total amount of memory used by VASP on root node   256680. kBytes
========================================================================

   base      :      30000. kBytes
   nonl-proj :     197277. kBytes
   fftplans  :       2737. kBytes
   grid      :      10830. kBytes
   one-center:        968. kBytes
   wavefun   :      14868. kBytes
 
     INWAV:  cpu time    0.0010: real time    0.0000
 Broyden mixing: mesh for mixing (old mesh)
   NGX = 11   NGY = 11   NGZ =151
  (NGX  = 48   NGY  = 48   NGZ  =640)
  gives a total of  18271 points

 initial charge density was supplied:
 charge density of overlapping atoms calculated
 number of electron     104.0000000 magnetization 
 keeping initial charge density in first step


--------------------------------------------------------------------------------------------------------


 Maximum index for augmentation-charges         1088 (set IRDMAX)


--------------------------------------------------------------------------------------------------------


 First call to EWALD:  gamma=   0.217
 Maximum number of real-space cells 6x 6x 1
 Maximum number of reciprocal cells 1x 1x14

 FEWALD executed in parallel
    FEWALD:  cpu time    0.0010: real time    0.0012


----------------------------------------- Iteration    1(   1)  ---------------------------------------


    POTLOK:  cpu time    0.0470: real time    0.0471
    SETDIJ:  cpu time    0.0090: real time    0.0090
     EDDAV:  cpu time   10.2454: real time   10.2534
 BZINTS: Fermi energy: 12.469324;104.000000 electrons
         Band energy:-625.436140;  BLOECHL correction: -0.107585
       DOS:  cpu time    0.0250: real time    0.0259
    --------------------------------------------
      LOOP:  cpu time   10.3274: real time   10.3378

 eigenvalue-minimisations  :  7588
 total energy-change (2. order) : 0.6225137E+03  (-0.4173199E+04)
 number of electron     104.0000000 magnetization 
 augmentation part      104.0000000 magnetization 

 Free energy of the ion-electron system (eV)
  ---------------------------------------------------
  alpha Z        PSCENC =       110.42177369
  Ewald energy   TEWEN  =     70743.56733755
  -Hartree energ DENC   =    -79206.51292192
  -exchange      EXHF   =         0.00000000
  -V(xc)+E(xc)   XCENC  =        42.71893165
  PAW double counting   =      7696.95730908    -7370.99620114
  entropy T*S    EENTRO =         0.00000000
  eigenvalues    EBANDS =      -625.43613987
  atomic energy  EATOM  =      9231.79361089
  Solvation  Ediel_sol  =         0.00000000
  ---------------------------------------------------
  free energy    TOTEN  =       622.51369994 eV

  energy without entropy =      622.51369994  energy(sigma->0) =      622.51369994


--------------------------------------------------------------------------------------------------------




----------------------------------------- Iteration    1(   2)  ---------------------------------------


     EDDAV:  cpu time   12.5201: real time   12.5413
 BZINTS: Fermi energy:  4.777883;104.000000 electrons
         Band energy:***********;  BLOECHL correction:  0.000000
       DOS:  cpu time    0.0060: real time    0.0055
    --------------------------------------------
      LOOP:  cpu time   12.5271: real time   12.5523

 eigenvalue-minimisations  :  9576
 total energy-change (2. order) :-0.6477140E+03  (-0.6232901E+03)
 number of electron     104.0000000 magnetization 
 augmentation part      104.0000000 magnetization 

 Free energy of the ion-electron system (eV)
  ---------------------------------------------------
  alpha Z        PSCENC =       110.42177369
  Ewald energy   TEWEN  =     70743.56733755
  -Hartree energ DENC   =    -79206.51292192
  -exchange      EXHF   =         0.00000000
  -V(xc)+E(xc)   XCENC  =        42.71893165
  PAW double counting   =      7696.95730908    -7370.99620114
  entropy T*S    EENTRO =         0.00000000
  eigenvalues    EBANDS =     -1273.15012438
  atomic energy  EATOM  =      9231.79361089
  Solvation  Ediel_sol  =         0.00000000
  ---------------------------------------------------
  free energy    TOTEN  =       -25.20028457 eV

  energy without entropy =      -25.20028457  energy(sigma->0) =      -25.20028457


--------------------------------------------------------------------------------------------------------




----------------------------------------- Iteration    1(   3)  ---------------------------------------


     EDDAV:  cpu time   12.3311: real time   12.3498
 BZINTS: Fermi energy:  3.273699;104.000000 electrons
         Band energy:***********;  BLOECHL correction:  0.000000
       DOS:  cpu time    0.0040: real time    0.0049
    --------------------------------------------
      LOOP:  cpu time   12.3361: real time   12.3578

 eigenvalue-minimisations  :  9212
 total energy-change (2. order) :-0.5674948E+02  (-0.5547500E+02)
 number of electron     104.0000000 magnetization 
 augmentation part      104.0000000 magnetization 

 Free energy of the ion-electron system (eV)
  ---------------------------------------------------
  alpha Z        PSCENC =       110.42177369
  Ewald energy   TEWEN  =     70743.56733755
  -Hartree energ DENC   =    -79206.51292192
  -exchange      EXHF   =         0.00000000
  -V(xc)+E(xc)   XCENC  =        42.71893165
  PAW double counting   =      7696.95730908    -7370.99620114
  entropy T*S    EENTRO =         0.00000000
  eigenvalues    EBANDS =     -1329.89960687
  atomic energy  EATOM  =      9231.79361089
  Solvation  Ediel_sol  =         0.00000000
  ---------------------------------------------------
  free energy    TOTEN  =       -81.94976706 eV

  energy without entropy =      -81.94976706  energy(sigma->0) =      -81.94976706


--------------------------------------------------------------------------------------------------------




----------------------------------------- Iteration    1(   4)  ---------------------------------------


     EDDAV:  cpu time   12.6721: real time   12.6922
 BZINTS: Fermi energy:  3.291783;104.000000 electrons
         Band energy:***********;  BLOECHL correction:  0.000000
       DOS:  cpu time    0.0050: real time    0.0055
    --------------------------------------------
      LOOP:  cpu time   12.6791: real time   12.7021

 eigenvalue-minimisations  :  9352
 total energy-change (2. order) :-0.2468483E+01  (-0.2456359E+01)
 number of electron     104.0000000 magnetization 
 augmentation part      104.0000000 magnetization 

 Free energy of the ion-electron system (eV)
  ---------------------------------------------------
  alpha Z        PSCENC =       110.42177369
  Ewald energy   TEWEN  =     70743.56733755
  -Hartree energ DENC   =    -79206.51292192
  -exchange      EXHF   =         0.00000000
  -V(xc)+E(xc)   XCENC  =        42.71893165
  PAW double counting   =      7696.95730908    -7370.99620114
  entropy T*S    EENTRO =         0.00000000
  eigenvalues    EBANDS =     -1332.36809007
  atomic energy  EATOM  =      9231.79361089
  Solvation  Ediel_sol  =         0.00000000
  ---------------------------------------------------
  free energy    TOTEN  =       -84.41825026 eV

  energy without entropy =      -84.41825026  energy(sigma->0) =      -84.41825026


--------------------------------------------------------------------------------------------------------




----------------------------------------- Iteration    1(   5)  ---------------------------------------


     EDDAV:  cpu time   13.6019: real time   13.6201
 BZINTS: Fermi energy:  3.264333;104.000000 electrons
         Band energy:***********;  BLOECHL correction:  0.000000
       DOS:  cpu time    0.0050: real time    0.0053
    CHARGE:  cpu time    0.4269: real time    0.4274
    MIXING:  cpu time    0.0020: real time    0.0017
    --------------------------------------------
      LOOP:  cpu time   14.0379: real time   14.0575

 eigenvalue-minimisations  : 10080
 total energy-change (2. order) :-0.1180324E+00  (-0.1179830E+00)
 number of electron     104.0000003 magnetization 
 augmentation part      -11.5527946 magnetization 

 Broyden mixing:
  rms(total) = 0.17603E+01    rms(broyden)= 0.17595E+01
  rms(prec ) = 0.18083E+01
  weight for this iteration     100.00

 Free energy of the ion-electron system (eV)
  ---------------------------------------------------
  alpha Z        PSCENC =       110.42177369
  Ewald energy   TEWEN  =     70743.56733755
  -Hartree energ DENC   =    -79206.51292192
  -exchange      EXHF   =         0.00000000
  -V(xc)+E(xc)   XCENC  =        42.71893165
  PAW double counting   =      7696.95730908    -7370.99620114
  entropy T*S    EENTRO =         0.00000000
  eigenvalues    EBANDS =     -1332.48612251
  atomic energy  EATOM  =      9231.79361089
  Solvation  Ediel_sol  =         0.00000000
  ---------------------------------------------------
  free energy    TOTEN  =       -84.53628270 eV

  energy without entropy =      -84.53628270  energy(sigma->0) =      -84.53628270


--------------------------------------------------------------------------------------------------------




----------------------------------------- Iteration    1(   6)  ---------------------------------------


    POTLOK:  cpu time    0.0410: real time    0.0416
    SETDIJ:  cpu time    0.0090: real time    0.0088
     EDDAV:  cpu time   14.0089: real time   14.0290
 BZINTS: Fermi energy:  1.666623;104.000000 electrons
         Band energy:***********;  BLOECHL correction: -0.007675
       DOS:  cpu time    0.0220: real time    0.0217
    CHARGE:  cpu time    0.4219: real time    0.4236
    MIXING:  cpu time    0.0020: real time    0.0017
    --------------------------------------------
      LOOP:  cpu time   14.5058: real time   14.5292

 eigenvalue-minimisations  : 10276
 total energy-change (2. order) : 0.4284799E+01  (-0.5628502E+01)
 number of electron     104.0000001 magnetization 
 augmentation part       -8.9076355 magnetization 

 Broyden mixing:
  rms(total) = 0.12582E+01    rms(broyden)= 0.12580E+01
  rms(prec ) = 0.13257E+01
  weight for this iteration     100.00

 eigenvalues of (default mixing * dielectric matrix)
  average eigenvalue GAMMA=   0.6169
  0.6169

 Free energy of the ion-electron system (eV)
  ---------------------------------------------------
  alpha Z        PSCENC =       110.42177369
  Ewald energy   TEWEN  =     70743.56733755
  -Hartree energ DENC   =    -78992.69897562
  -exchange      EXHF   =         0.00000000
  -V(xc)+E(xc)   XCENC  =        36.46852941
  PAW double counting   =      7238.46396956    -6917.31714315
  entropy T*S    EENTRO =         0.00000000
  eigenvalues    EBANDS =     -1530.95058564
  atomic energy  EATOM  =      9231.79361089
  Solvation  Ediel_sol  =         0.00000000
  ---------------------------------------------------
  free energy    TOTEN  =       -80.25148331 eV

  energy without entropy =      -80.25148331  energy(sigma->0) =      -80.25148331


--------------------------------------------------------------------------------------------------------




----------------------------------------- Iteration    1(   7)  ---------------------------------------


    POTLOK:  cpu time    0.0430: real time    0.0438
    SETDIJ:  cpu time    0.0090: real time    0.0089
     EDDAV:  cpu time   14.1798: real time   14.1998
 BZINTS: Fermi energy:  2.491437;104.000000 electrons
         Band energy:***********;  BLOECHL correction:  0.000000
       DOS:  cpu time    0.0050: real time    0.0050
    CHARGE:  cpu time    0.4289: real time    0.4286
    MIXING:  cpu time    0.0020: real time    0.0018
    --------------------------------------------
      LOOP:  cpu time   14.6688: real time   14.6926

 eigenvalue-minimisations  : 10584
 total energy-change (2. order) : 0.4608914E+01  (-0.2106135E+01)
 number of electron     104.0000002 magnetization 
 augmentation part      -10.3476597 magnetization 

 Broyden mixing:
  rms(total) = 0.55114E+00    rms(broyden)= 0.55098E+00
  rms(prec ) = 0.55932E+00
  weight for this iteration     100.00

 eigenvalues of (default mixing * dielectric matrix)
  average eigenvalue GAMMA=   1.5564
  2.6081  0.5048

 Free energy of the ion-electron system (eV)
  ---------------------------------------------------
  alpha Z        PSCENC =       110.42177369
  Ewald energy   TEWEN  =     70743.56733755
  -Hartree energ DENC   =    -79116.98402348
  -exchange      EXHF   =         0.00000000
  -V(xc)+E(xc)   XCENC  =        39.08999986
  PAW double counting   =      7499.39390885    -7175.54451581
  entropy T*S    EENTRO =         0.00000000
  eigenvalues    EBANDS =     -1407.38066039
  atomic energy  EATOM  =      9231.79361089
  Solvation  Ediel_sol  =         0.00000000
  ---------------------------------------------------
  free energy    TOTEN  =       -75.64256883 eV

  energy without entropy =      -75.64256883  energy(sigma->0) =      -75.64256883


--------------------------------------------------------------------------------------------------------




----------------------------------------- Iteration    1(   8)  ---------------------------------------


    POTLOK:  cpu time    0.0420: real time    0.0422
    SETDIJ:  cpu time    0.0090: real time    0.0090
     EDDAV:  cpu time   13.5379: real time   13.5533
 BZINTS: Fermi energy:  2.229245;104.000000 electrons
         Band energy:***********;  BLOECHL correction:  0.000000
       DOS:  cpu time    0.0040: real time    0.0045
    CHARGE:  cpu time    0.4269: real time    0.4264
    MIXING:  cpu time    0.0020: real time    0.0016
    --------------------------------------------
      LOOP:  cpu time   14.0219: real time   14.0399

 eigenvalue-minimisations  : 10080
 total energy-change (2. order) : 0.3631127E+00  (-0.2844627E+00)
 number of electron     104.0000002 magnetization 
 augmentation part       -9.9921143 magnetization 

 Broyden mixing:
  rms(total) = 0.15587E+00    rms(broyden)= 0.15582E+00
  rms(prec ) = 0.16129E+00
  weight for this iteration     100.00

 eigenvalues of (default mixing * dielectric matrix)
  average eigenvalue GAMMA=   1.3159
  0.4875  1.0412  2.4190

 Free energy of the ion-electron system (eV)
  ---------------------------------------------------
  alpha Z        PSCENC =       110.42177369
  Ewald energy   TEWEN  =     70743.56733755
  -Hartree energ DENC   =    -79094.53540408
  -exchange      EXHF   =         0.00000000
  -V(xc)+E(xc)   XCENC  =        37.87089622
  PAW double counting   =      7426.86917313    -7103.01274008
  entropy T*S    EENTRO =         0.00000000
  eigenvalues    EBANDS =     -1428.25410346
  atomic energy  EATOM  =      9231.79361089
  Solvation  Ediel_sol  =         0.00000000
  ---------------------------------------------------
  free energy    TOTEN  =       -75.27945614 eV

  energy without entropy =      -75.27945614  energy(sigma->0) =      -75.27945614


--------------------------------------------------------------------------------------------------------




----------------------------------------- Iteration    1(   9)  ---------------------------------------


    POTLOK:  cpu time    0.0430: real time    0.0431
    SETDIJ:  cpu time    0.0090: real time    0.0090
     EDDAV:  cpu time   12.3501: real time   12.3610
 BZINTS: Fermi energy:  2.246708;104.000000 electrons
         Band energy:***********;  BLOECHL correction:  0.000000
       DOS:  cpu time    0.0040: real time    0.0045
    CHARGE:  cpu time    0.4359: real time    0.4355
    MIXING:  cpu time    0.0010: real time    0.0018
    --------------------------------------------
      LOOP:  cpu time   12.8430: real time   12.8589

 eigenvalue-minimisations  :  9044
 total energy-change (2. order) : 0.5852199E-01  (-0.2480412E-01)
 number of electron     104.0000002 magnetization 
 augmentation part      -10.0980488 magnetization 

 Broyden mixing:
  rms(total) = 0.56587E-01    rms(broyden)= 0.56575E-01
  rms(prec ) = 0.58093E-01
  weight for this iteration     100.00

 eigenvalues of (default mixing * dielectric matrix)
  average eigenvalue GAMMA=   1.2114
  2.3765  1.3201  0.4909  0.6582

 Free energy of the ion-electron system (eV)
  ---------------------------------------------------
  alpha Z        PSCENC =       110.42177369
  Ewald energy   TEWEN  =     70743.56733755
  -Hartree energ DENC   =    -79103.43412143
  -exchange      EXHF   =         0.00000000
  -V(xc)+E(xc)   XCENC  =        38.23623280
  PAW double counting   =      7457.50435840    -7133.33920665
  entropy T*S    EENTRO =         0.00000000
  eigenvalues    EBANDS =     -1419.97091940
  atomic energy  EATOM  =      9231.79361089
  Solvation  Ediel_sol  =         0.00000000
  ---------------------------------------------------
  free energy    TOTEN  =       -75.22093414 eV

  energy without entropy =      -75.22093414  energy(sigma->0) =      -75.22093414


--------------------------------------------------------------------------------------------------------




----------------------------------------- Iteration    1(  10)  ---------------------------------------


    POTLOK:  cpu time    0.0420: real time    0.0425
    SETDIJ:  cpu time    0.0080: real time    0.0089
     EDDAV:  cpu time   13.3330: real time   13.3502
 BZINTS: Fermi energy:  2.270284;104.000000 electrons
         Band energy:***********;  BLOECHL correction:  0.000000
       DOS:  cpu time    0.0040: real time    0.0045
    CHARGE:  cpu time    0.4349: real time    0.4345
    MIXING:  cpu time    0.0010: real time    0.0017
    --------------------------------------------
      LOOP:  cpu time   13.8249: real time   13.8451

 eigenvalue-minimisations  :  9912
 total energy-change (2. order) : 0.5691028E-02  (-0.4179757E-02)
 number of electron     104.0000002 magnetization 
 augmentation part      -10.1289284 magnetization 

 Broyden mixing:
  rms(total) = 0.23539E-01    rms(broyden)= 0.23532E-01
  rms(prec ) = 0.24127E-01
  weight for this iteration     100.00

 eigenvalues of (default mixing * dielectric matrix)
  average eigenvalue GAMMA=   1.2619
  2.4352  1.9052  0.9229  0.4940  0.5523

 Free energy of the ion-electron system (eV)
  ---------------------------------------------------
  alpha Z        PSCENC =       110.42177369
  Ewald energy   TEWEN  =     70743.56733755
  -Hartree energ DENC   =    -79107.95675399
  -exchange      EXHF   =         0.00000000
  -V(xc)+E(xc)   XCENC  =        38.36550875
  PAW double counting   =      7470.14668455    -7145.89490991
  entropy T*S    EENTRO =         0.00000000
  eigenvalues    EBANDS =     -1415.65849465
  atomic energy  EATOM  =      9231.79361089
  Solvation  Ediel_sol  =         0.00000000
  ---------------------------------------------------
  free energy    TOTEN  =       -75.21524312 eV

  energy without entropy =      -75.21524312  energy(sigma->0) =      -75.21524312


--------------------------------------------------------------------------------------------------------




----------------------------------------- Iteration    1(  11)  ---------------------------------------


    POTLOK:  cpu time    0.0430: real time    0.0426
    SETDIJ:  cpu time    0.0090: real time    0.0091
     EDDAV:  cpu time   12.9930: real time   13.0057
 BZINTS: Fermi energy:  2.485153;104.000000 electrons
         Band energy:***********;  BLOECHL correction:  0.000000
       DOS:  cpu time    0.0050: real time    0.0051
    CHARGE:  cpu time    0.4439: real time    0.4449
    MIXING:  cpu time    0.0020: real time    0.0017
    --------------------------------------------
      LOOP:  cpu time   13.4959: real time   13.5120

 eigenvalue-minimisations  :  9576
 total energy-change (2. order) : 0.4835919E-03  (-0.7611497E-03)
 number of electron     104.0000002 magnetization 
 augmentation part      -10.1331284 magnetization 

 Broyden mixing:
  rms(total) = 0.12157E-01    rms(broyden)= 0.12153E-01
  rms(prec ) = 0.12683E-01
  weight for this iteration     100.00

 eigenvalues of (default mixing * dielectric matrix)
  average eigenvalue GAMMA=   1.2379
  2.5165  1.8471  1.0862  0.9685  0.4921  0.5169

 Free energy of the ion-electron system (eV)
  ---------------------------------------------------
  alpha Z        PSCENC =       110.42177369
  Ewald energy   TEWEN  =     70743.56733755
  -Hartree energ DENC   =    -79111.86603943
  -exchange      EXHF   =         0.00000000
  -V(xc)+E(xc)   XCENC  =        38.43647440
  PAW double counting   =      7476.06271153    -7151.79374264
  entropy T*S    EENTRO =         0.00000000
  eigenvalues    EBANDS =     -1411.83688553
  atomic energy  EATOM  =      9231.79361089
  Solvation  Ediel_sol  =         0.00000000
  ---------------------------------------------------
  free energy    TOTEN  =       -75.21475952 eV

  energy without entropy =      -75.21475952  energy(sigma->0) =      -75.21475952


--------------------------------------------------------------------------------------------------------




----------------------------------------- Iteration    1(  12)  ---------------------------------------


    POTLOK:  cpu time    0.0430: real time    0.0466
    SETDIJ:  cpu time    0.0090: real time    0.0091
     EDDAV:  cpu time   12.9220: real time   13.0103
 BZINTS: Fermi energy:  2.482138;104.000000 electrons
         Band energy:***********;  BLOECHL correction:  0.000000
       DOS:  cpu time    0.0050: real time    0.0050
    CHARGE:  cpu time    0.4269: real time    0.4273
    MIXING:  cpu time    0.0020: real time    0.0017
    --------------------------------------------
      LOOP:  cpu time   13.4090: real time   13.5051

 eigenvalue-minimisations  :  9408
 total energy-change (2. order) : 0.3324632E-03  (-0.1926037E-03)
 number of electron     104.0000002 magnetization 
 augmentation part      -10.1267564 magnetization 

 Broyden mixing:
  rms(total) = 0.47493E-02    rms(broyden)= 0.47452E-02
  rms(prec ) = 0.51553E-02
  weight for this iteration     100.00

 eigenvalues of (default mixing * dielectric matrix)
  average eigenvalue GAMMA=   1.2775
  2.4732  1.8632  1.8632  1.0101  0.7308  0.4949  0.5075

 Free energy of the ion-electron system (eV)
  ---------------------------------------------------
  alpha Z        PSCENC =       110.42177369
  Ewald energy   TEWEN  =     70743.56733755
  -Hartree energ DENC   =    -79111.72779359
  -exchange      EXHF   =         0.00000000
  -V(xc)+E(xc)   XCENC  =        38.42658102
  PAW double counting   =      7473.86974899    -7149.64335297
  entropy T*S    EENTRO =         0.00000000
  eigenvalues    EBANDS =     -1411.92233265
  atomic energy  EATOM  =      9231.79361089
  Solvation  Ediel_sol  =         0.00000000
  ---------------------------------------------------
  free energy    TOTEN  =       -75.21442706 eV

  energy without entropy =      -75.21442706  energy(sigma->0) =      -75.21442706


--------------------------------------------------------------------------------------------------------




----------------------------------------- Iteration    1(  13)  ---------------------------------------


    POTLOK:  cpu time    0.0410: real time    0.0413
    SETDIJ:  cpu time    0.0090: real time    0.0089
     EDDAV:  cpu time   11.4243: real time   11.9126
 BZINTS: Fermi energy:  2.489840;104.000000 electrons
         Band energy:***********;  BLOECHL correction:  0.000000
       DOS:  cpu time    0.0050: real time    0.0059
    CHARGE:  cpu time    0.4069: real time    0.4374
    MIXING:  cpu time    0.0010: real time    0.0018
    --------------------------------------------
      LOOP:  cpu time   11.8872: real time   12.4107

 eigenvalue-minimisations  :  8372
 total energy-change (2. order) : 0.9289695E-04  (-0.5898966E-04)
 number of electron     104.0000002 magnetization 
 augmentation part      -10.1238583 magnetization 

 Broyden mixing:
  rms(total) = 0.23678E-02    rms(broyden)= 0.23663E-02
  rms(prec ) = 0.26449E-02
  weight for this iteration     100.00

 eigenvalues of (default mixing * dielectric matrix)
  average eigenvalue GAMMA=   1.2862
  2.5233  2.5233  1.3422  1.3422  0.8887  0.6659  0.4936  0.5105

 Free energy of the ion-electron system (eV)
  ---------------------------------------------------
  alpha Z        PSCENC =       110.42177369
  Ewald energy   TEWEN  =     70743.56733755
  -Hartree energ DENC   =    -79113.51549001
  -exchange      EXHF   =         0.00000000
  -V(xc)+E(xc)   XCENC  =        38.42223477
  PAW double counting   =      7471.70789665    -7147.52001122
  entropy T*S    EENTRO =         0.00000000
  eigenvalues    EBANDS =     -1410.09168649
  atomic energy  EATOM  =      9231.79361089
  Solvation  Ediel_sol  =         0.00000000
  ---------------------------------------------------
  free energy    TOTEN  =       -75.21433416 eV

[...]
    LRDIAG:  cpu time    0.2790: real time    0.2790
    MIXING:  cpu time    0.0020: real time    0.0027
    --------------------------------------------
      LOOP:  cpu time   13.3380: real time   13.3675

 Broyden mixing:
  rms(total) = 0.41647E-05    rms(broyden)= 0.41639E-05
  rms(prec ) = 0.56111E-05
  weight for this iteration     100.00

 eigenvalues of (default mixing * dielectric matrix)
  average eigenvalue GAMMA=   1.9894
  8.3340  6.2582  3.7821  3.7821  2.5368  2.5368  1.8319  1.8319  1.2502  1.2502
  1.0826  1.0826  0.9475  0.9475  0.9399  0.6893  0.6661  0.5233  0.4917  0.5153
  0.4968

 Free energy of the ion-electron system (eV)
  ---------------------------------------------------
  -Hartree energ DENC   =        -1.24186170
  -V(xc)+E(xc)   XCENC  =         0.01673182
  PAW double counting   =         0.03541009       -0.03489235
  entropy T*S    EENTRO =         0.00000000
  eigenvalues    EBANDS =        -0.34890792
  ---------------------------------------------------
  free energy    TOTEN  =        -1.57352007 eV

  energy without entropy =       -1.57352007


----------------------------------------- Iteration    3(  24)  ---------------------------------------


   POT+DIJ:  cpu time    0.1090: real time    0.1095
    HAMIL1:  cpu time    2.3306: real time    2.3349
    LRDIAG:  cpu time    0.2830: real time    0.2829
    LRDIIS:  cpu time    9.5236: real time    9.5439
    LRDIAG:  cpu time    0.2760: real time    0.2752
    MIXING:  cpu time    0.0030: real time    0.0028
    --------------------------------------------
      LOOP:  cpu time   13.3830: real time   13.4117

 Broyden mixing:
  rms(total) = 0.24993E-05    rms(broyden)= 0.24988E-05
  rms(prec ) = 0.36955E-05
  weight for this iteration     100.00

 eigenvalues of (default mixing * dielectric matrix)
  average eigenvalue GAMMA=   2.0311
  8.3229  6.4328  4.0796  4.0796  2.7295  2.7295  2.0044  2.0044  1.5622  1.2725
  1.2725  1.0497  0.9493  0.9493  0.9334  0.9334  0.6892  0.6626  0.5233  0.4917
  0.5153  0.4968

 Free energy of the ion-electron system (eV)
  ---------------------------------------------------
  -Hartree energ DENC   =        -1.24185981
  -V(xc)+E(xc)   XCENC  =         0.01673128
  PAW double counting   =         0.03541352       -0.03489583
  entropy T*S    EENTRO =         0.00000000
  eigenvalues    EBANDS =        -0.34892276
  ---------------------------------------------------
  free energy    TOTEN  =        -1.57353359 eV

  energy without entropy =       -1.57353359


----------------------------------------- Iteration    3(  25)  ---------------------------------------


   POT+DIJ:  cpu time    0.1090: real time    0.1091
    HAMIL1:  cpu time    2.3186: real time    2.3241
    LRDIAG:  cpu time    0.2870: real time    0.2871
    LRDIIS:  cpu time    9.1606: real time    9.1773
    LRDIAG:  cpu time    0.2750: real time    0.2757
    MIXING:  cpu time    0.0030: real time    0.0031
    --------------------------------------------
      LOOP:  cpu time   13.0130: real time   13.0403

 Broyden mixing:
  rms(total) = 0.16809E-05    rms(broyden)= 0.16806E-05
  rms(prec ) = 0.21540E-05
  weight for this iteration     100.00

 eigenvalues of (default mixing * dielectric matrix)
  average eigenvalue GAMMA=   2.0335
  8.2987  6.5840  4.2856  4.2856  2.8178  2.8178  2.0401  2.0401  1.4901  1.4901
  1.2317  1.2317  0.9530  0.9530  0.9781  0.9781  0.9165  0.6893  0.6624  0.5233
  0.4917  0.5153  0.4968

 Free energy of the ion-electron system (eV)
  ---------------------------------------------------
  -Hartree energ DENC   =        -1.24185936
  -V(xc)+E(xc)   XCENC  =         0.01673063
  PAW double counting   =         0.03541285       -0.03489513
  entropy T*S    EENTRO =         0.00000000
  eigenvalues    EBANDS =        -0.34893451
  ---------------------------------------------------
  free energy    TOTEN  =        -1.57354552 eV

  energy without entropy =       -1.57354552


----------------------------------------- Iteration    3(  26)  ---------------------------------------


   POT+DIJ:  cpu time    0.1200: real time    0.1203
    HAMIL1:  cpu time    2.3226: real time    2.3274
    LRDIAG:  cpu time    0.2870: real time    0.2864
    LRDIIS:  cpu time    9.0596: real time    9.0710
    LRDIAG:  cpu time    0.2750: real time    0.2756
    MIXING:  cpu time    0.0030: real time    0.0029
    --------------------------------------------
      LOOP:  cpu time   12.9250: real time   12.9454

 Broyden mixing:
  rms(total) = 0.98621E-06    rms(broyden)= 0.98597E-06
  rms(prec ) = 0.12314E-05
  weight for this iteration     100.00

 eigenvalues of (default mixing * dielectric matrix)
  average eigenvalue GAMMA=   2.1582
  8.1157  8.1157  5.5320  4.3710  3.0357  3.0357  2.2730  2.2730  1.7572  1.7572
  1.2661  1.2661  0.9499  0.9499  0.9847  0.9847  0.9702  0.6893  0.7800  0.6620
  0.5233  0.4917  0.5153  0.4967

 Free energy of the ion-electron system (eV)
  ---------------------------------------------------
  -Hartree energ DENC   =        -1.24186030
  -V(xc)+E(xc)   XCENC  =         0.01673047
  PAW double counting   =         0.03541129       -0.03489356
  entropy T*S    EENTRO =         0.00000000
  eigenvalues    EBANDS =        -0.34893398
  ---------------------------------------------------
  free energy    TOTEN  =        -1.57354608 eV

  energy without entropy =       -1.57354608


------------------------ aborting loop because EDIFF is reached ----------------------------------------


 change of polarisation eV/A/(eV/A) component  3 :    -0.013     0.005     3.087
 dielectric tensor                  component  3 :    -0.004     0.002     2.025


--------------------------------------------------------------------------------------------------------


    FORLOC:  cpu time    0.0040: real time    0.0042
    FORNL :  cpu time    2.1187: real time    2.1214
    STRESS:  cpu time    6.3860: real time    6.3907
    FORCOR:  cpu time    0.0420: real time    0.0422
    OFIELD:  cpu time    0.0010: real time    0.0003

  Hirshfeld charges:
            ion         q(e)     
   ------------------------------
      1     Mo          0.242
      2     Mo          0.241
      3     Mo          0.241
      4     Mo          0.242
      5     Te         -0.121
      6     Te         -0.121
      7     Te         -0.120
      8     Te         -0.120
      9     Te         -0.120
     10     Te         -0.120
     11     Te         -0.121
     12     Te         -0.121

  Tkatchenko/Scheffler method for vdW energy calculation
  ---------------------------------------------------------------------------------------------

  Parameters of vdW forcefield:
            C6ts              R0ts           ALPHAts        RELVOL
            (au)              (au)            (au)                
   ---------------------------------------------------------------
   Mo       1114.298          4.156         92.024          1.041
   Mo       1118.988          4.159         92.217          1.043
   Mo       1118.988          4.159         92.217          1.043
   Mo       1114.298          4.156         92.024          1.041
   Te        411.616          4.241         38.385          1.020
   Te        403.991          4.228         38.028          1.010
   Te        411.647          4.241         38.386          1.020
   Te        411.618          4.241         38.385          1.020
   Te        411.618          4.241         38.385          1.020
   Te        411.646          4.241         38.386          1.020
   Te        403.992          4.228         38.028          1.010
   Te        411.616          4.241         38.385          1.020
  Edisp (eV):   -3.96916
    FORVDW:  cpu time    0.4739: real time    0.4757
    FORLOC:  cpu time    0.0040: real time    0.0043
    FORNL :  cpu time    2.1187: real time    2.1211
    STRESS:  cpu time    6.3890: real time    6.3934
    FORCOR:  cpu time    0.0420: real time    0.0419
    OFIELD:  cpu time    0.0000: real time    0.0004

  Hirshfeld charges:
            ion         q(e)     
   ------------------------------
      1     Mo          0.242
      2     Mo          0.241
      3     Mo          0.241
      4     Mo          0.242
      5     Te         -0.121
      6     Te         -0.121
      7     Te         -0.120
      8     Te         -0.120
      9     Te         -0.120
     10     Te         -0.120
     11     Te         -0.121
     12     Te         -0.121

  Tkatchenko/Scheffler method for vdW energy calculation
  ---------------------------------------------------------------------------------------------

  Parameters of vdW forcefield:
            C6ts              R0ts           ALPHAts        RELVOL
            (au)              (au)            (au)                
   ---------------------------------------------------------------
   Mo       1114.298          4.156         92.024          1.041
   Mo       1118.988          4.159         92.217          1.043
   Mo       1118.988          4.159         92.217          1.043
   Mo       1114.298          4.156         92.024          1.041
   Te        411.616          4.241         38.385          1.020
   Te        403.992          4.228         38.028          1.010
   Te        411.646          4.241         38.386          1.020
   Te        411.618          4.241         38.385          1.020
   Te        411.618          4.241         38.385          1.020
   Te        411.647          4.241         38.386          1.020
   Te        403.991          4.228         38.028          1.010
   Te        411.616          4.241         38.385          1.020
  Edisp (eV):   -3.96916
    FORVDW:  cpu time    0.4729: real time    0.4755
    FORNLD:  cpu time    5.5142: real time    5.5174

 PIEZOELECTRIC TENSOR FIELD DIRECTION 3  (e Angst)
 -----------------------------------------------------------------------------
    -0.19501  0.00000 -0.00000           ( -0.00001 -0.00000  0.00000)
     0.00000 -0.19501 -0.00000           (  0.00000 -0.00001 -0.00000)
     0.00000  0.00000 -0.29902           (  0.00000 -0.00000  0.00001)

 PIEZOELECTRIC TENSOR FIELD DIRECTION 3  (C/m^2)
 -----------------------------------------------------------------------------
    -0.00573  0.00000 -0.00000
     0.00000 -0.00573 -0.00000
     0.00000  0.00000 -0.00879


      POSITION         DIRECTION 3           BORN EFFECTIVE CHARGE    (rigid.aug.   ionic)
 -----------------------------------------------------------------------------------------
     -0.00000      1.02404     14.53000     0.00000 -0.00000-49.74291 (  0.16212 14.00000)
      1.77370      2.04809     21.51000    -0.00000 -0.00000 -6.07384 (  0.16198 14.00000)
     -0.00000      1.02404     28.49000     0.00000  0.00000 -6.04261 (  0.16198 14.00000)
      1.77370      2.04809     35.47000     0.00000 -0.00000-49.79163 (  0.16212 14.00000)
      1.77370      2.04809     16.33510    -0.00000  0.00000 -3.16299 (  1.18462  6.00000)
      1.77370      2.04809     12.72490     0.00000 -0.00000 -4.36969 (  1.18399  6.00000)
     -0.00000      1.02404     23.31510    -0.00000 -0.00000  0.30116 (  1.18459  6.00000)
     -0.00000      1.02404     19.70490     0.00000 -0.00000  0.89117 (  1.18455  6.00000)
      1.77370      2.04809     30.29510     0.00000 -0.00000  0.90024 (  1.18455  6.00000)
      1.77370      2.04809     26.68490     0.00000  0.00000  0.31904 (  1.18459  6.00000)
     -0.00000      1.02404     37.27510    -0.00000  0.00000 -4.36157 (  1.18399  6.00000)
     -0.00000      1.02404     33.66490    -0.00000  0.00000 -3.16186 (  1.18462  6.00000)
 -----------------------------------------------------------------------------------------
    total drift (improves with k-points):   0.00000 -0.00000*********




--------------------------------------------------------------------------------------------------------


  LATTYP: Found a hexagonal cell.
 ALAT       =     3.5473923118
 C/A-ratio  =    14.0948605637
  
  Lattice vectors:
  
 A1 = (   3.5473923118,   0.0000000000,   0.0000000000)
 A2 = (  -1.7736961559,   3.0721318592,   0.0000000000)
 A3 = (   0.0000000000,   0.0000000000,  50.0000000000)


Analysis of symmetry for initial positions (statically):
=====================================================================
 Subroutine PRICEL returns:
 Original cell was already a primitive cell.
 

 Routine SETGRP: Setting up the symmetry group for a 
 hexagonal supercell.


 Subroutine GETGRP returns: Found 12 space group operations
 (whereof  4 operations were pure point group operations)
 out of a pool of 24 trial point group operations.


The static configuration has the point symmetry C_2h.
 The point group associated with its full space group is D_3d.


Analysis of symmetry for dynamics (positions and initial velocities):
=====================================================================
 Subroutine PRICEL returns:
 Original cell was already a primitive cell.
 

 Routine SETGRP: Setting up the symmetry group for a 
 hexagonal supercell.


 Subroutine GETGRP returns: Found 12 space group operations
 (whereof  4 operations were pure point group operations)
 out of a pool of 24 trial point group operations.


The dynamic configuration has the point symmetry C_2h.
 The point group associated with its full space group is D_3d.


 Subroutine INISYM returns: Found 12 space group operations
 (whereof  4 operations are pure point group operations),
 and found     1 'primitive' translations



 MACROSCOPIC STATIC DIELECTRIC TENSOR (including local field effects in DFT)
 ------------------------------------------------------
          11.642935     0.000000    -0.000000
           0.000000    11.642935     0.000000
           0.000000     0.000000     2.025067
 ------------------------------------------------------



--------------------------------------------------------------------------------------------------------


  LATTYP: Found a hexagonal cell.
 ALAT       =     3.5473923118
 C/A-ratio  =    14.0948605637
  
  Lattice vectors:
  
 A1 = (   3.5473923118,   0.0000000000,   0.0000000000)
 A2 = (  -1.7736961559,   3.0721318592,   0.0000000000)
 A3 = (   0.0000000000,   0.0000000000,  50.0000000000)


Analysis of symmetry for initial positions (statically):
=====================================================================
 Subroutine PRICEL returns:
 Original cell was already a primitive cell.
 

 Routine SETGRP: Setting up the symmetry group for a 
 hexagonal supercell.


 Subroutine GETGRP returns: Found 12 space group operations
 (whereof  4 operations were pure point group operations)
 out of a pool of 24 trial point group operations.


The static configuration has the point symmetry C_2h.
 The point group associated with its full space group is D_3d.


Analysis of symmetry for dynamics (positions and initial velocities):
=====================================================================
 Subroutine PRICEL returns:
 Original cell was already a primitive cell.
 

 Routine SETGRP: Setting up the symmetry group for a 
 hexagonal supercell.


 Subroutine GETGRP returns: Found 12 space group operations
 (whereof  4 operations were pure point group operations)
 out of a pool of 24 trial point group operations.


The dynamic configuration has the point symmetry C_2h.
 The point group associated with its full space group is D_3d.


 Subroutine INISYM returns: Found 12 space group operations
 (whereof  4 operations are pure point group operations),
 and found     1 'primitive' translations



--------------------------------------------------------------------------------------------------------




 MACROSCOPIC STATIC DIELECTRIC TENSOR (including local field effects in DFT)
 ------------------------------------------------------
          11.642935     0.000000    -0.000000
           0.000000    11.642935     0.000000
           0.000000     0.000000     2.025067
 ------------------------------------------------------


 PIEZOELECTRIC TENSOR  for field in x, y, z        (e  Angst)
          XX          YY          ZZ          XY          YZ          ZX
  --------------------------------------------------------------------------------
  x     0.00187     0.00271    -0.00255     0.00000     0.00021     0.00000
  y    -0.01241     0.02543     0.00109     0.00000     0.00061     0.00000
  z    -0.19501    -0.19501    -0.29902     0.00000     0.00000    -0.00000

 PIEZOELECTRIC TENSOR  for field in x, y, z        (C/m^2)
          XX          YY          ZZ          XY          YZ          ZX
  --------------------------------------------------------------------------------
  x     0.00000     0.00000     0.00000     0.00000     0.00000     0.00000
  y     0.00000     0.00000     0.00000     0.00000     0.00000     0.00000
  z     0.00000     0.00000     0.00000     0.00000     0.00000     0.00000
 
 BORN EFFECTIVE CHARGES (in e, cummulative output)
 -------------------------------------------------
 ion    1
    1    -3.24934    -0.00007     0.00003
    2    -0.00000    -3.24991    -0.00022
    3     0.00000    -0.00000   -49.74291
 ion    2
    1    -3.22702     0.00006     0.00000
    2    -0.00000    -3.22636    -0.00001
    3    -0.00000    -0.00000    -6.07384
 ion    3
    1    -3.22702    -0.00006    -0.00000
    2    -0.00000    -3.22771     0.00001
    3     0.00000     0.00000    -6.04261
 ion    4
    1    -3.24934     0.00007    -0.00003
    2     0.00000    -3.24880     0.00025
    3     0.00000    -0.00000   -49.79163
 ion    5
    1     1.59315    -0.00193     0.00028
    2    -0.00000     1.59352     0.00235
    3    -0.00000     0.00000    -3.16299
 ion    6
    1     1.60198    -0.00175    -0.00012
    2    -0.00000     1.60228    -0.00127
    3     0.00000    -0.00000    -4.36969
 ion    7
    1     1.58692     0.00196     0.00027
    2    -0.00000     1.58651     0.00219
    3    -0.00000    -0.00000     0.30116
 ion    8
    1     1.58877     0.00195    -0.00028
    2     0.00000     1.58839    -0.00220
    3     0.00000    -0.00000     0.89117
 ion    9
    1     1.58877    -0.00195     0.00028
    2     0.00000     1.58916     0.00221
    3     0.00000    -0.00000     0.90024
 ion   10
    1     1.58692    -0.00196    -0.00027
    2     0.00000     1.58733    -0.00221
    3     0.00000     0.00000     0.31904
 ion   11
    1     1.60198     0.00175     0.00012
    2     0.00000     1.60169     0.00126
    3    -0.00000     0.00000    -4.36157
 ion   12
    1     1.59315     0.00193    -0.00028
    2     0.00000     1.59279    -0.00234
    3    -0.00000     0.00000    -3.16186


--------------------------------------------------------------------------------------------------------


 writing wavefunctions
     LOOP+:  cpu time 3180.0516: real time 3187.5082
    4ORBIT:  cpu time    0.0000: real time    0.0000
 BZINTS: Fermi energy:  2.541522;104.000000 electrons
         Band energy:***********;  BLOECHL correction:  0.000000

 total amount of memory used by VASP on root node   256680. kBytes
========================================================================

   base      :      30000. kBytes
   nonl-proj :     197277. kBytes
   fftplans  :       2737. kBytes
   grid      :      10830. kBytes
   one-center:        968. kBytes
   wavefun   :      14868. kBytes
 
  
  
 General timing and accounting informations for this job:
 ========================================================
  
                  Total CPU time used (sec):     3184.110
                            User time (sec):     3133.421
                          System time (sec):       50.689
                         Elapsed time (sec):     3193.030
  
                   Maximum memory used (kb):      759332.
                   Average memory used (kb):           0.
  
                          Minor page faults:      7619294
                          Major page faults:            9
                 Voluntary context switches:         7385
