   9   9   0   0
  0.5302352E+02  0.3319749E-09  0.3319749E-09  0.5000000E-08  0.5000000E-15
  1.000000000000000E-004
  CAR 
 unknown system                          
     10.53222704    -65.31050703  301     -0.52817168      1.00000000
    -65.311  0.0000E+00  0.0000E+00
    -65.058  0.0000E+00  0.0000E+00
    -64.805  0.0000E+00  0.0000E+00
    -64.552  0.0000E+00  0.0000E+00
    -64.299  0.0000E+00  0.0000E+00
    -64.046  0.0000E+00  0.0000E+00
    -63.794  0.0000E+00  0.0000E+00
    -63.541  0.0000E+00  0.0000E+00
    -63.288  0.0000E+00  0.0000E+00
    -63.035  0.0000E+00  0.0000E+00
    -62.782  0.0000E+00  0.0000E+00
    -62.530  0.0000E+00  0.0000E+00
    -62.277  0.0000E+00  0.0000E+00
    -62.024  0.0000E+00  0.0000E+00
    -61.771  0.0000E+00  0.6000E+01
    -61.518  0.0000E+00  0.6000E+01
    -61.266  0.0000E+00  0.6000E+01
    -61.013  0.0000E+00  0.6000E+01
    -60.760  0.0000E+00  0.6000E+01
    -60.507  0.0000E+00  0.6000E+01
    -60.254  0.0000E+00  0.6000E+01
    -60.002  0.0000E+00  0.6000E+01
    -59.749  0.0000E+00  0.6000E+01
    -59.496  0.0000E+00  0.6000E+01
    -59.243  0.0000E+00  0.6000E+01
    -58.990  0.0000E+00  0.6000E+01
    -58.737  0.0000E+00  0.6000E+01
    -58.485  0.0000E+00  0.6000E+01
    -58.232  0.0000E+00  0.6000E+01
    -57.979  0.0000E+00  0.6000E+01
    -57.726  0.0000E+00  0.6000E+01
    -57.473  0.0000E+00  0.6000E+01
    -57.221  0.0000E+00  0.6000E+01
    -56.968  0.0000E+00  0.6000E+01
    -56.715  0.0000E+00  0.6000E+01
    -56.462  0.0000E+00  0.6000E+01
    -56.209  0.0000E+00  0.6000E+01
    -55.957  0.0000E+00  0.6000E+01
    -55.704  0.0000E+00  0.6000E+01
    -55.451  0.0000E+00  0.6000E+01
    -55.198  0.0000E+00  0.6000E+01
    -54.945  0.0000E+00  0.6000E+01
    -54.693  0.0000E+00  0.6000E+01
    -54.440  0.0000E+00  0.6000E+01
    -54.187  0.0000E+00  0.6000E+01
    -53.934  0.0000E+00  0.6000E+01
    -53.681  0.0000E+00  0.6000E+01
    -53.428  0.0000E+00  0.6000E+01
    -53.176  0.0000E+00  0.6000E+01
    -52.923  0.0000E+00  0.6000E+01
    -52.670  0.0000E+00  0.6000E+01
    -52.417  0.0000E+00  0.6000E+01
    -52.164  0.0000E+00  0.6000E+01
    -51.912  0.0000E+00  0.6000E+01
    -51.659  0.0000E+00  0.6000E+01
    -51.406  0.0000E+00  0.6000E+01
    -51.153  0.0000E+00  0.6000E+01
    -50.900  0.0000E+00  0.6000E+01
    -50.648  0.0000E+00  0.6000E+01
    -50.395  0.0000E+00  0.6000E+01
    -50.142  0.0000E+00  0.6000E+01
    -49.889  0.0000E+00  0.6000E+01
    -49.636  0.0000E+00  0.6000E+01
    -49.384  0.0000E+00  0.6000E+01
    -49.131  0.0000E+00  0.6000E+01
    -48.878  0.0000E+00  0.6000E+01
    -48.625  0.0000E+00  0.6000E+01
    -48.372  0.0000E+00  0.6000E+01
    -48.119  0.0000E+00  0.6000E+01
    -47.867  0.0000E+00  0.6000E+01
    -47.614  0.0000E+00  0.6000E+01
    -47.361  0.0000E+00  0.6000E+01
    -47.108  0.0000E+00  0.6000E+01
    -46.855  0.0000E+00  0.6000E+01
    -46.603  0.0000E+00  0.6000E+01
    -46.350  0.0000E+00  0.6000E+01
    -46.097  0.0000E+00  0.6000E+01
    -45.844  0.0000E+00  0.6000E+01
    -45.591  0.0000E+00  0.6000E+01
    -45.339  0.0000E+00  0.6000E+01
    -45.086  0.0000E+00  0.6000E+01
    -44.833  0.0000E+00  0.6000E+01
    -44.580  0.0000E+00  0.6000E+01
    -44.327  0.0000E+00  0.6000E+01
    -44.075  0.0000E+00  0.6000E+01
    -43.822  0.0000E+00  0.6000E+01
    -43.569  0.0000E+00  0.6000E+01
    -43.316  0.0000E+00  0.6000E+01
    -43.063  0.0000E+00  0.6000E+01
    -42.810  0.0000E+00  0.6000E+01
    -42.558  0.0000E+00  0.6000E+01
    -42.305  0.0000E+00  0.6000E+01
    -42.052  0.0000E+00  0.6000E+01
    -41.799  0.0000E+00  0.6000E+01
    -41.546  0.0000E+00  0.6000E+01
    -41.294  0.0000E+00  0.6000E+01
    -41.041  0.0000E+00  0.6000E+01
    -40.788  0.0000E+00  0.6000E+01
    -40.535  0.0000E+00  0.6000E+01
    -40.282  0.0000E+00  0.6000E+01
    -40.030  0.0000E+00  0.6000E+01
    -39.777  0.0000E+00  0.6000E+01
    -39.524  0.0000E+00  0.6000E+01
    -39.271  0.0000E+00  0.6000E+01
    -39.018  0.0000E+00  0.6000E+01
    -38.766  0.0000E+00  0.6000E+01
    -38.513  0.0000E+00  0.6000E+01
    -38.260  0.0000E+00  0.6000E+01
    -38.007  0.0000E+00  0.6000E+01
    -37.754  0.0000E+00  0.6000E+01
    -37.502  0.0000E+00  0.6000E+01
    -37.249  0.0000E+00  0.6000E+01
    -36.996  0.0000E+00  0.6000E+01
    -36.743  0.0000E+00  0.6000E+01
    -36.490  0.0000E+00  0.6000E+01
    -36.237  0.0000E+00  0.6000E+01
    -35.985  0.8636E+02  0.1091E+02
    -35.732  0.0000E+00  0.2400E+02
    -35.479  0.0000E+00  0.2400E+02
    -35.226  0.0000E+00  0.2400E+02
    -34.973  0.0000E+00  0.2400E+02
    -34.721  0.0000E+00  0.2400E+02
    -34.468  0.0000E+00  0.2400E+02
    -34.215  0.0000E+00  0.2400E+02
    -33.962  0.0000E+00  0.2400E+02
    -33.709  0.0000E+00  0.2400E+02
    -33.457  0.0000E+00  0.2400E+02
    -33.204  0.0000E+00  0.2400E+02
    -32.951  0.0000E+00  0.2400E+02
    -32.698  0.0000E+00  0.2400E+02
    -32.445  0.0000E+00  0.2400E+02
    -32.193  0.0000E+00  0.2400E+02
    -31.940  0.0000E+00  0.2400E+02
    -31.687  0.0000E+00  0.2400E+02
    -31.434  0.0000E+00  0.2400E+02
    -31.181  0.0000E+00  0.2400E+02
    -30.928  0.0000E+00  0.2400E+02
    -30.676  0.0000E+00  0.2400E+02
    -30.423  0.0000E+00  0.2400E+02
    -30.170  0.0000E+00  0.2400E+02
    -29.917  0.0000E+00  0.2400E+02
    -29.664  0.0000E+00  0.2400E+02
    -29.412  0.0000E+00  0.2400E+02
    -29.159  0.0000E+00  0.2400E+02
    -28.906  0.0000E+00  0.2400E+02
    -28.653  0.0000E+00  0.2400E+02
    -28.400  0.0000E+00  0.2400E+02
    -28.148  0.0000E+00  0.2400E+02
    -27.895  0.0000E+00  0.2400E+02
    -27.642  0.0000E+00  0.2400E+02
    -27.389  0.0000E+00  0.2400E+02
    -27.136  0.0000E+00  0.2400E+02
    -26.884  0.0000E+00  0.2400E+02
    -26.631  0.0000E+00  0.2400E+02
    -26.378  0.0000E+00  0.2400E+02
    -26.125  0.0000E+00  0.2400E+02
    -25.872  0.0000E+00  0.2400E+02
    -25.619  0.0000E+00  0.2400E+02
    -25.367  0.0000E+00  0.2400E+02
    -25.114  0.0000E+00  0.2400E+02
    -24.861  0.0000E+00  0.2400E+02
    -24.608  0.0000E+00  0.2400E+02
    -24.355  0.0000E+00  0.2400E+02
    -24.103  0.0000E+00  0.2400E+02
    -23.850  0.0000E+00  0.2400E+02
    -23.597  0.0000E+00  0.2400E+02
    -23.344  0.0000E+00  0.2400E+02
    -23.091  0.0000E+00  0.2400E+02
    -22.839  0.0000E+00  0.2400E+02
    -22.586  0.0000E+00  0.2400E+02
    -22.333  0.0000E+00  0.2400E+02
    -22.080  0.0000E+00  0.2400E+02
    -21.827  0.0000E+00  0.2400E+02
    -21.575  0.0000E+00  0.2400E+02
    -21.322  0.0000E+00  0.2400E+02
    -21.069  0.0000E+00  0.2400E+02
    -20.816  0.0000E+00  0.2400E+02
    -20.563  0.0000E+00  0.2400E+02
    -20.310  0.0000E+00  0.2400E+02
    -20.058  0.0000E+00  0.2400E+02
    -19.805  0.0000E+00  0.2400E+02
    -19.552  0.0000E+00  0.2400E+02
    -19.299  0.0000E+00  0.2400E+02
    -19.046  0.0000E+00  0.2400E+02
    -18.794  0.0000E+00  0.2400E+02
    -18.541  0.0000E+00  0.2400E+02
    -18.288  0.0000E+00  0.2400E+02
    -18.035  0.0000E+00  0.2400E+02
    -17.782  0.0000E+00  0.2400E+02
    -17.530  0.0000E+00  0.2400E+02
    -17.277  0.0000E+00  0.2400E+02
    -17.024  0.0000E+00  0.2400E+02
    -16.771  0.0000E+00  0.2400E+02
    -16.518  0.0000E+00  0.2400E+02
    -16.266  0.0000E+00  0.2400E+02
    -16.013  0.0000E+00  0.2400E+02
    -15.760  0.0000E+00  0.2400E+02
    -15.507  0.0000E+00  0.2400E+02
    -15.254  0.4836E+00  0.2403E+02
    -15.001  0.1703E+01  0.2432E+02
    -14.749  0.1850E+01  0.2477E+02
    -14.496  0.2042E+01  0.2526E+02
    -14.243  0.3220E+01  0.2590E+02
    -13.990  0.6037E+01  0.2704E+02
    -13.737  0.7620E+01  0.2873E+02
    -13.485  0.1302E+02  0.3122E+02
    -13.232  0.1446E+02  0.3493E+02
    -12.979  0.0000E+00  0.3600E+02
    -12.726  0.0000E+00  0.3600E+02
    -12.473  0.0000E+00  0.3600E+02
    -12.221  0.0000E+00  0.3600E+02
    -11.968  0.0000E+00  0.3600E+02
    -11.715  0.0000E+00  0.3600E+02
    -11.462  0.0000E+00  0.3600E+02
    -11.209  0.0000E+00  0.3600E+02
    -10.957  0.0000E+00  0.3600E+02
    -10.704  0.0000E+00  0.3600E+02
    -10.451  0.0000E+00  0.3600E+02
    -10.198  0.0000E+00  0.3600E+02
     -9.945  0.0000E+00  0.3600E+02
     -9.693  0.0000E+00  0.3600E+02
     -9.440  0.0000E+00  0.3600E+02
     -9.187  0.0000E+00  0.3600E+02
     -8.934  0.0000E+00  0.3600E+02
     -8.681  0.0000E+00  0.3600E+02
     -8.428  0.0000E+00  0.3600E+02
     -8.176  0.0000E+00  0.3600E+02
     -7.923  0.0000E+00  0.3600E+02
     -7.670  0.0000E+00  0.3600E+02
     -7.417  0.0000E+00  0.3600E+02
     -7.164  0.0000E+00  0.3600E+02
     -6.912  0.0000E+00  0.3600E+02
     -6.659  0.1318E+01  0.3616E+02
     -6.406  0.4371E+01  0.3686E+02
     -6.153  0.5503E+01  0.3804E+02
     -5.900  0.8231E+01  0.4023E+02
     -5.648  0.7434E+01  0.4317E+02
     -5.395  0.5735E+01  0.4458E+02
     -5.142  0.2572E+01  0.4542E+02
     -4.889  0.6142E+01  0.4676E+02
     -4.636  0.4551E+01  0.4932E+02
     -4.384  0.4155E+01  0.5156E+02
     -4.131  0.5379E+01  0.5296E+02
     -3.878  0.1277E+02  0.5499E+02
     -3.625  0.6585E+01  0.5782E+02
     -3.372  0.4883E+01  0.5921E+02
     -3.119  0.6984E+01  0.6043E+02
     -2.867  0.1171E+02  0.6301E+02
     -2.614  0.1250E+02  0.6617E+02
     -2.361  0.8804E+01  0.6833E+02
     -2.108  0.8404E+01  0.7036E+02
     -1.855  0.5525E+01  0.7178E+02
     -1.603  0.9481E+01  0.7454E+02
     -1.350  0.5688E+01  0.7659E+02
     -1.097  0.2492E+01  0.7763E+02
     -0.844  0.3576E+00  0.7794E+02
     -0.591  0.0000E+00  0.7800E+02
     -0.339  0.0000E+00  0.7800E+02
     -0.086  0.0000E+00  0.7800E+02
      0.167  0.0000E+00  0.7800E+02
      0.420  0.1976E+01  0.7818E+02
      0.673  0.7461E+01  0.7957E+02
      0.925  0.1083E+02  0.8228E+02
      1.178  0.1339E+02  0.8538E+02
      1.431  0.8753E+01  0.8909E+02
      1.684  0.8945E+01  0.9156E+02
      1.937  0.6323E+01  0.9368E+02
      2.190  0.4101E+01  0.9540E+02
      2.442  0.4238E+01  0.9647E+02
      2.695  0.8072E+01  0.9819E+02
      2.948  0.7668E+01  0.1000E+03
      3.201  0.4319E+01  0.1013E+03
      3.454  0.0000E+00  0.1020E+03
      3.706  0.0000E+00  0.1020E+03
      3.959  0.6221E+00  0.1021E+03
      4.212  0.7926E+00  0.1023E+03
      4.465  0.1779E+01  0.1026E+03
      4.718  0.3651E+01  0.1033E+03
      4.970  0.4187E+01  0.1042E+03
      5.223  0.4429E+01  0.1054E+03
      5.476  0.5879E+01  0.1067E+03
      5.729  0.4990E+01  0.1080E+03
      5.982  0.3877E+01  0.1090E+03
      6.234  0.4712E+01  0.1100E+03
      6.487  0.5409E+01  0.1110E+03
      6.740  0.2012E+01  0.1116E+03
      6.993  0.6007E+00  0.1120E+03
      7.246  0.0000E+00  0.1120E+03
      7.499  0.0000E+00  0.1120E+03
      7.751  0.0000E+00  0.1120E+03
      8.004  0.0000E+00  0.1120E+03
      8.257  0.0000E+00  0.1120E+03
      8.510  0.0000E+00  0.1120E+03
      8.763  0.0000E+00  0.1120E+03
      9.015  0.0000E+00  0.1120E+03
      9.268  0.0000E+00  0.1120E+03
      9.521  0.0000E+00  0.1120E+03
      9.774  0.0000E+00  0.1120E+03
     10.027  0.0000E+00  0.1120E+03
     10.279  0.0000E+00  0.1120E+03
     10.532  0.0000E+00  0.1120E+03
