       N       E                     dE             d eps       ncg     rms          rms(c)
DAV:   1     0.492254739980E+03    0.49225E+03   -0.33293E+04  5180   0.837E+02
DAV:   2    -0.228422938688E+02   -0.51510E+03   -0.50920E+03  5908   0.304E+02
DAV:   3    -0.697510101950E+02   -0.46909E+02   -0.46692E+02  6188   0.955E+01
DAV:   4    -0.711732877285E+02   -0.14223E+01   -0.14198E+01  5796   0.194E+01
DAV:   5    -0.712008391802E+02   -0.27551E-01   -0.27541E-01  5908   0.214E+00    0.168E+01
DAV:   6    -0.655428144509E+02    0.56580E+01   -0.10694E+02  6888   0.363E+01    0.104E+01
DAV:   7    -0.625002810607E+02    0.30425E+01   -0.30495E+01  7252   0.200E+01    0.485E+00
DAV:   8    -0.623099062371E+02    0.19037E+00   -0.35647E+00  6664   0.761E+00    0.164E+00
DAV:   9    -0.622321548767E+02    0.77751E-01   -0.48307E-01  6692   0.307E+00    0.334E-01
DAV:  10    -0.622316825518E+02    0.47232E-03   -0.28476E-02  5516   0.715E-01    0.159E-01
DAV:  11    -0.622310997234E+02    0.58283E-03   -0.53341E-03  6104   0.286E-01    0.647E-02
DAV:  12    -0.622309341192E+02    0.16560E-03   -0.77546E-04  5880   0.117E-01    0.314E-02
DAV:  13    -0.622308477348E+02    0.86384E-04   -0.17226E-04  5992   0.480E-02    0.166E-02
DAV:  14    -0.622308320383E+02    0.15697E-04   -0.66438E-05  5936   0.245E-02    0.115E-02
DAV:  15    -0.622308695809E+02   -0.37543E-04   -0.24087E-05  5712   0.175E-02    0.554E-03
DAV:  16    -0.622309346902E+02   -0.65109E-04   -0.16931E-05  5432   0.120E-02    0.414E-03
DAV:  17    -0.622310108012E+02   -0.76111E-04   -0.83847E-06  5376   0.834E-03    0.174E-03
DAV:  18    -0.622310441635E+02   -0.33362E-04   -0.22524E-06  5432   0.354E-03    0.109E-03
DAV:  19    -0.622310641258E+02   -0.19962E-04   -0.52053E-07  5320   0.183E-03    0.631E-04
DAV:  20    -0.622310829014E+02   -0.18776E-04   -0.41340E-07  5152   0.130E-03    0.315E-04
DAV:  21    -0.622310888219E+02   -0.59205E-05   -0.15389E-07  5544   0.736E-04    0.192E-04
DAV:  22    -0.622310919150E+02   -0.30931E-05   -0.56818E-08  4620   0.448E-04    0.845E-05
DAV:  23    -0.622310934901E+02   -0.15751E-05   -0.33558E-08  4536   0.315E-04    0.472E-05
DAV:  24    -0.622310939764E+02   -0.48635E-06   -0.54438E-09  4536   0.175E-04    0.324E-05
DAV:  25    -0.622310944732E+02   -0.49678E-06   -0.74984E-09  4200   0.203E-04    0.200E-05
DAV:  26    -0.622310946390E+02   -0.16586E-06   -0.54972E-10  4452   0.129E-04    0.105E-05
DAV:  27    -0.622310946736E+02   -0.34537E-07   -0.84277E-11  4648   0.730E-05    0.550E-06
DAV:  28    -0.622310946833E+02   -0.97425E-08   -0.23858E-11  4424   0.417E-05
   1 F= -.64828087E+02 E0= -.64828087E+02  d E =0.000000E+00
 Linear response reoptimize wavefunctions
DAV:   1    -0.622310946898E+02    0.25970E+01   -0.78416E-12  4200   0.375E-05
DAV:   2    -0.622310946900E+02   -0.16007E-09    0.22936E-11  4648   0.154E-05
DAV:   3    -0.622310946899E+02    0.58208E-10    0.24717E-11  4228   0.674E-06
 Linear response G [H, r] |phi>, progress :
  Direction:   1
       N       E                     dE             d eps       ncg     rms
RMM:   1    -0.312915848554E+03   -0.31292E+03   -0.13240E+01  5819   0.468E+02
RMM:   2    -0.328802028243E+03   -0.15886E+02   -0.33326E+02  6593   0.602E+01
RMM:   3    -0.336924287685E+03   -0.81223E+01   -0.24049E+01  7137   0.156E+01
RMM:   4    -0.337478191936E+03   -0.55390E+00   -0.16679E+00  8301   0.376E+00
RMM:   5    -0.337509305098E+03   -0.31113E-01   -0.17367E-01  8238   0.111E+00
RMM:   6    -0.337512407624E+03   -0.31025E-02   -0.17387E-02  8744   0.365E-01
RMM:   7    -0.337513343579E+03   -0.93595E-03   -0.21175E-03  8610   0.122E-01
RMM:   8    -0.337513446891E+03   -0.10331E-03    0.17243E-04  8811   0.444E-02
RMM:   9    -0.337513506997E+03   -0.60107E-04    0.13597E-04  9132   0.170E-02
RMM:  10    -0.337513521285E+03   -0.14288E-04    0.98987E-05  9362   0.676E-03
RMM:  11    -0.337513533760E+03   -0.12474E-04   -0.84418E-06  9398   0.348E-03
RMM:  12    -0.337513532253E+03    0.15060E-05    0.10237E-05  9428   0.236E-03
RMM:  13    -0.337513532742E+03   -0.48886E-06    0.60388E-06  9474   0.199E-03
RMM:  14    -0.337513534061E+03   -0.13188E-05   -0.69713E-06  9383   0.186E-03
RMM:  15    -0.337513533367E+03    0.69386E-06    0.12531E-08  9269   0.182E-03
 Linear response G [H, r] |phi>, progress :
  Direction:   2
       N       E                     dE             d eps       ncg     rms
RMM:   1    -0.300950307766E+03   -0.30095E+03    0.15980E+01  5763   0.472E+02
RMM:   2    -0.347195773628E+03   -0.46245E+02   -0.39597E+02  6525   0.634E+01
RMM:   3    -0.357377839728E+03   -0.10182E+02   -0.29303E+01  7075   0.163E+01
RMM:   4    -0.358121633595E+03   -0.74379E+00   -0.19373E+00  8191   0.380E+00
RMM:   5    -0.358143656443E+03   -0.22023E-01   -0.12715E-01  8120   0.113E+00
RMM:   6    -0.358151409802E+03   -0.77534E-02   -0.16761E-02  8652   0.367E-01
RMM:   7    -0.358152525135E+03   -0.11153E-02   -0.26594E-03  8468   0.123E-01
RMM:   8    -0.358152666923E+03   -0.14179E-03   -0.75923E-04  8829   0.445E-02
RMM:   9    -0.358152688485E+03   -0.21562E-04   -0.43875E-04  8995   0.162E-02
RMM:  10    -0.358152668636E+03    0.19849E-04   -0.15078E-04  9343   0.615E-03
RMM:  11    -0.358152662341E+03    0.62944E-05   -0.76607E-05  9285   0.301E-03
RMM:  12    -0.358152653236E+03    0.91057E-05    0.15974E-05  9430   0.196E-03
RMM:  13    -0.358152652640E+03    0.59565E-06    0.21870E-05  9275   0.161E-03
RMM:  14    -0.358152652115E+03    0.52483E-06    0.26976E-05  9214   0.150E-03
RMM:  15    -0.358152651446E+03    0.66867E-06    0.33609E-05  9062   0.147E-03
 Linear response G [H, r] |phi>, progress :
  Direction:   3
       N       E                     dE             d eps       ncg     rms
RMM:   1    -0.299973244047E+03   -0.29997E+03    0.32532E+02  6443   0.468E+02
RMM:   2    -0.339899648357E+03   -0.39926E+02   -0.30038E+02  6523   0.581E+01
RMM:   3    -0.347063984307E+03   -0.71643E+01   -0.23191E+01  6913   0.158E+01
RMM:   4    -0.347521273012E+03   -0.45729E+00   -0.19283E+00  8083   0.390E+00
RMM:   5    -0.347557661263E+03   -0.36388E-01   -0.29399E-01  8129   0.116E+00
RMM:   6    -0.347562052212E+03   -0.43909E-02   -0.48737E-02  8317   0.370E-01
RMM:   7    -0.347562864254E+03   -0.81204E-03   -0.76233E-03  8242   0.126E-01
RMM:   8    -0.347563062725E+03   -0.19847E-03   -0.14808E-03  8581   0.463E-02
RMM:   9    -0.347563100778E+03   -0.38053E-04   -0.59254E-05  9238   0.178E-02
RMM:  10    -0.347563122823E+03   -0.22046E-04    0.38627E-05  9621   0.775E-03
RMM:  11    -0.347563130380E+03   -0.75572E-05    0.53818E-05  9579   0.436E-03
RMM:  12    -0.347563134245E+03   -0.38645E-05    0.30649E-05  9547   0.318E-03
RMM:  13    -0.347563136545E+03   -0.22999E-05    0.12064E-05  9358   0.277E-03
RMM:  14    -0.347563137631E+03   -0.10860E-05    0.17351E-06  9260   0.267E-03
RMM:  15    -0.347563138042E+03   -0.41102E-06   -0.21827E-06  9211   0.262E-03
 Linear response to external field (no local field effect), progress :
  Direction:   1
       N       E                     dE             d eps       ncg     rms          rms(c)
RMM:   1    -0.650758152175E+01   -0.65076E+01   -0.43102E+01  9872   0.856E+00
RMM:   2    -0.841050190771E+01   -0.19029E+01    0.29965E-01  6037   0.236E+00
RMM:   3    -0.850810115008E+01   -0.97599E-01   -0.89956E-02  7209   0.607E-01
RMM:   4    -0.851172716449E+01   -0.36260E-02   -0.56611E-03  7295   0.149E-01
RMM:   5    -0.851194068391E+01   -0.21352E-03   -0.81134E-04  7859   0.501E-02
RMM:   6    -0.851197145155E+01   -0.30768E-04   -0.96053E-05  7829   0.159E-02
RMM:   7    -0.851197624188E+01   -0.47903E-05   -0.18607E-05  7626   0.548E-03
RMM:   8    -0.851197668800E+01   -0.44612E-06   -0.24239E-06  7011   0.190E-03
RMM:   9    -0.851197677304E+01   -0.85046E-07   -0.43798E-07  6840   0.710E-04
RMM:  10    -0.851197679209E+01   -0.19047E-07   -0.83938E-08  6035   0.278E-04
RMM:  11    -0.851197679316E+01   -0.10641E-08   -0.29236E-09  5444   0.122E-04
 Linear response to external field (no local field effect), progress :
  Direction:   2
       N       E                     dE             d eps       ncg     rms          rms(c)
RMM:   1    -0.677316691813E+01   -0.67732E+01   -0.43860E+01  9843   0.869E+00
RMM:   2    -0.847478614304E+01   -0.17016E+01    0.39637E-01  6015   0.239E+00
RMM:   3    -0.857822055499E+01   -0.10343E+00   -0.84546E-02  7086   0.620E-01
RMM:   4    -0.858221388169E+01   -0.39933E-02   -0.55932E-03  7275   0.153E-01
RMM:   5    -0.858244463894E+01   -0.23076E-03   -0.81480E-04  7654   0.530E-02
RMM:   6    -0.858248144506E+01   -0.36806E-04   -0.10181E-04  7867   0.169E-02
RMM:   7    -0.858248565037E+01   -0.42053E-05   -0.17295E-05  7478   0.581E-03
RMM:   8    -0.858248617339E+01   -0.52302E-06   -0.24737E-06  6986   0.204E-03
RMM:   9    -0.858248625642E+01   -0.83029E-07   -0.50900E-07  6673   0.777E-04
RMM:  10    -0.858248626927E+01   -0.12851E-07   -0.81699E-08  5926   0.306E-04
RMM:  11    -0.858248627196E+01   -0.26920E-08   -0.13410E-08  5306   0.134E-04
 Linear response to external field (no local field effect), progress :
  Direction:   3
       N       E                     dE             d eps       ncg     rms          rms(c)
RMM:   1    -0.430047271099E+01   -0.43005E+01   -0.23014E+01  9616   0.793E+00
RMM:   2    -0.495408318277E+01   -0.65361E+00   -0.46056E-02  5829   0.209E+00
RMM:   3    -0.498843052654E+01   -0.34347E-01   -0.49140E-02  7123   0.522E-01
RMM:   4    -0.499027498396E+01   -0.18445E-02   -0.28753E-03  7317   0.129E-01
RMM:   5    -0.499039984380E+01   -0.12486E-03   -0.42205E-04  7470   0.406E-02
RMM:   6    -0.499041332029E+01   -0.13476E-04   -0.32810E-05  7706   0.120E-02
RMM:   7    -0.499041474403E+01   -0.14237E-05   -0.45883E-06  7262   0.393E-03
RMM:   8    -0.499041489782E+01   -0.15379E-06   -0.46786E-07  6839   0.130E-03
RMM:   9    -0.499041492149E+01   -0.23667E-07   -0.64070E-08  6274   0.458E-04
RMM:  10    -0.499041492483E+01   -0.33376E-08   -0.10054E-08  5740   0.174E-04
 Linear response to external field, progress :
  Direction:   1
       N       E                     dE             d eps       ncg     rms          rms(c)
RMM:   1    -0.666129417624E+01   -0.66613E+01   -0.43690E+01 43539   0.858E+00
RMM:   2    -0.843972628043E+01   -0.17784E+01    0.38181E-01 26744   0.234E+00    0.607E+00
RMM:   3    -0.823305715116E+01    0.20667E+00   -0.26806E-01 29928   0.266E+00    0.322E+00
RMM:   4    -0.843263689516E+01   -0.19958E+00   -0.26678E-01 30867   0.252E+00    0.525E-01
RMM:   5    -0.849283212849E+01   -0.60195E-01   -0.20331E-02 32289   0.664E-01    0.906E-02
RMM:   6    -0.850104548750E+01   -0.82134E-02   -0.89034E-04 32551   0.138E-01    0.391E-02
RMM:   7    -0.850296037486E+01   -0.19149E-02   -0.40920E-05 33356   0.559E-02    0.169E-02
RMM:   8    -0.850333750351E+01   -0.37713E-03   -0.90545E-05 34977   0.193E-02    0.703E-03
RMM:   9    -0.850365252220E+01   -0.31502E-03   -0.27543E-05 32016   0.100E-02    0.258E-03
RMM:  10    -0.850390278177E+01   -0.25026E-03    0.14242E-06 34636   0.332E-03    0.739E-04
RMM:  11    -0.850393550004E+01   -0.32718E-04    0.21010E-06 33915   0.110E-03    0.375E-04
RMM:  12    -0.850396175512E+01   -0.26255E-04    0.93890E-07 32535   0.495E-04    0.170E-04
RMM:  13    -0.850396757324E+01   -0.58181E-05   -0.37332E-07 32706   0.227E-04    0.476E-05
RMM:  14    -0.850396686985E+01    0.70339E-06   -0.29478E-07 32783   0.995E-05    0.276E-05
RMM:  15    -0.850396660503E+01    0.26482E-06   -0.60475E-08 22191   0.443E-05    0.122E-05
RMM:  16    -0.850396668870E+01   -0.83663E-07   -0.13584E-08 19385   0.415E-05    0.267E-06
 Linear response to external field, progress :
  Direction:   2
       N       E                     dE             d eps       ncg     rms          rms(c)
RMM:   1    -0.667155140715E+01   -0.66716E+01   -0.43793E+01 24194   0.858E+00
RMM:   2    -0.844574872483E+01   -0.17742E+01    0.32563E-01 14920   0.234E+00    0.607E+00
RMM:   3    -0.823283272565E+01    0.21292E+00   -0.26580E-01 16539   0.266E+00    0.322E+00
RMM:   4    -0.841183068301E+01   -0.17900E+00   -0.59903E-02 17009   0.251E+00    0.523E-01
RMM:   5    -0.849283270105E+01   -0.81002E-01   -0.17043E-02 17833   0.658E-01    0.935E-02
RMM:   6    -0.850053141805E+01   -0.76987E-02   -0.19135E-03 17826   0.144E-01    0.508E-02
RMM:   7    -0.850219769893E+01   -0.16663E-02   -0.26711E-05 17977   0.599E-02    0.247E-02
RMM:   8    -0.850328525661E+01   -0.10876E-02   -0.98876E-05 18788   0.275E-02    0.683E-03
RMM:   9    -0.850362294752E+01   -0.33769E-03   -0.21322E-05 18116   0.102E-02    0.305E-03
RMM:  10    -0.850384919759E+01   -0.22625E-03    0.21683E-06 18816   0.395E-03    0.140E-03
RMM:  11    -0.850389931703E+01   -0.50119E-04   -0.64562E-06 18539   0.160E-03    0.578E-04
RMM:  12    -0.850394439881E+01   -0.45082E-04    0.51765E-07 18119   0.919E-04    0.233E-04
RMM:  13    -0.850395024829E+01   -0.58495E-05    0.84050E-07 18032   0.325E-04    0.626E-05
RMM:  14    -0.850395056716E+01   -0.31887E-06    0.49864E-07 18293   0.130E-04    0.258E-05
RMM:  15    -0.850395018833E+01    0.37883E-06    0.53497E-08 13343   0.497E-05    0.969E-06
 Linear response to external field, progress :
  Direction:   3
       N       E                     dE             d eps       ncg     rms          rms(c)
RMM:   1    -0.430047271099E+01   -0.43005E+01   -0.23014E+01  9616   0.793E+00
RMM:   2    -0.495408318277E+01   -0.65361E+00   -0.46056E-02  5829   0.209E+00    0.511E+00
RMM:   3    -0.336683252486E+01    0.15873E+01   -0.28371E+01  6540   0.516E+00    0.292E+00
RMM:   4    -0.237298039338E+01    0.99385E+00   -0.15411E+01  6280   0.179E+00    0.104E+00
RMM:   5    -0.268626821081E+01   -0.31329E+00   -0.19475E+01  6464   0.944E-01    0.584E-01
RMM:   6    -0.190871710158E+01    0.77755E+00   -0.12086E+01  6534   0.633E-01    0.261E-01
RMM:   7    -0.940967765986E+00    0.96775E+00   -0.24856E+00  7370   0.204E-01    0.194E-01
RMM:   8    -0.887288333619E+00    0.53679E-01   -0.20277E+00  6892   0.156E-01    0.744E-02
RMM:   9    -0.827056626389E+00    0.60232E-01   -0.14366E+00  7085   0.868E-02    0.361E-02
RMM:  10    -0.706557439521E+00    0.12050E+00   -0.23788E-01  6875   0.490E-02    0.177E-02
RMM:  11    -0.689647688199E+00    0.16910E-01   -0.65846E-02  6457   0.285E-02    0.901E-03
RMM:  12    -0.691024770931E+00   -0.13771E-02   -0.76195E-02  6553   0.200E-02    0.540E-03
RMM:  13    -0.695181360298E+00   -0.41566E-02   -0.11436E-01  6673   0.144E-02    0.275E-03
RMM:  14    -0.687552833635E+00    0.76285E-02   -0.36935E-02  6802   0.688E-03    0.171E-03
RMM:  15    -0.685192880834E+00    0.23600E-02   -0.12951E-02  6776   0.509E-03    0.105E-03
RMM:  16    -0.687240260712E+00   -0.20474E-02   -0.33533E-02  6749   0.438E-03    0.432E-04
RMM:  17    -0.684969431423E+00    0.22708E-02   -0.10842E-02  7212   0.199E-03    0.243E-04
RMM:  18    -0.684281066968E+00    0.68836E-03   -0.40327E-03  7145   0.150E-03    0.161E-04
RMM:  19    -0.684098728125E+00    0.18234E-03   -0.22619E-03  7133   0.101E-03    0.949E-05
RMM:  20    -0.683977807168E+00    0.12092E-03   -0.10756E-03  6829   0.499E-04    0.547E-05
RMM:  21    -0.683932115800E+00    0.45691E-04   -0.62918E-04  5966   0.362E-04    0.325E-05
RMM:  22    -0.683876834803E+00    0.55281E-04   -0.75198E-05  5724   0.150E-04    0.228E-05
RMM:  23    -0.683854610324E+00    0.22224E-04    0.14955E-04  5615   0.124E-04    0.164E-05
RMM:  24    -0.683848094225E+00    0.65161E-05    0.21596E-04  5354   0.722E-05    0.929E-06
