 vasp.5.4.1 24Jun15 (build Apr 13 2016 13:07:19) complex                        
  
 executed on           IFC91_ompi date 2019.09.13  20:17:47
 running on   28 total cores
 distrk:  each k-point on   28 cores,    1 groups
 distr:  one band on NCORES_PER_BAND=   1 cores,   28 groups


--------------------------------------------------------------------------------------------------------


 INCAR:
 POTCAR:    PAW_PBE Mo_sv_GW 05Dec2013            
 POTCAR:    PAW_PBE Se_GW 20Mar2012               

 ----------------------------------------------------------------------------- 
|                                                                             |
|           W    W    AA    RRRRR   N    N  II  N    N   GGGG   !!!           |
|           W    W   A  A   R    R  NN   N  II  NN   N  G    G  !!!           |
|           W    W  A    A  R    R  N N  N  II  N N  N  G       !!!           |
|           W WW W  AAAAAA  RRRRR   N  N N  II  N  N N  G  GGG   !            |
|           WW  WW  A    A  R   R   N   NN  II  N   NN  G    G                |
|           W    W  A    A  R    R  N    N  II  N    N   GGGG   !!!           |
|                                                                             |
|      For optimal performance we recommend to set                            |
|        NCORE= 4 - approx SQRT( number of cores)                             |
|      NCORE specifies how many cores store one orbital (NPAR=cpu/NCORE).     |
|      This setting can  greatly improve the performance of VASP for DFT.     |
|      The default, NPAR=number of cores might be grossly inefficient         |
|      on modern multi-core architectures or massively parallel machines.     |
|      Do your own testing !!!!                                               |
|      Unfortunately you need to use the default for GW and RPA calculations. |
|      (for HF NCORE is supported but not extensively tested yet)             |
|                                                                             |
 ----------------------------------------------------------------------------- 

 POTCAR:    PAW_PBE Mo_sv_GW 05Dec2013            
   VRHFIN =Mo: 4s4p5s4d                                                         
   LEXCH  = PE                                                                  
   EATOM  =  1861.5185 eV,  136.8178 Ry                                         
                                                                                
   TITEL  = PAW_PBE Mo_sv_GW 05Dec2013                                          
   LULTRA =        F    use ultrasoft PP ?                                      
   IUNSCR =        1    unscreen: 0-lin 1-nonlin 2-no                           
   RPACOR =    2.000    partial core radius                                     
   POMASS =   95.940; ZVAL   =   14.000    mass and valenz                      
   RCORE  =    2.100    outmost cutoff radius                                   
   RWIGS  =    2.100; RWIGS  =    1.111    wigner-seitz radius (au A)           
   ENMAX  =  344.914; ENMIN  =  258.686 eV                                      
   RCLOC  =    1.508    cutoff for local pot                                    
   LCOR   =        T    correct aug charges                                     
   LPAW   =        T    paw PP                                                  
   EAUG   =  964.741                                                            
   DEXC   =    0.000                                                            
   RMAX   =    2.149    core radius for proj-oper                               
   RAUG   =    1.300    factor for augmentation sphere                          
   RDEP   =    2.179    radius for radial grids                                 
   RDEPT  =    1.677    core radius for aug-charge                              
                                                                                
   Atomic configuration                                                         
   12 entries                                                                   
     n  l   j            E        occ.                                          
     1  0  0.50    -19816.9363   2.0000                                         
     2  0  0.50     -2796.7578   2.0000                                         
     2  1  1.50     -2499.7842   6.0000                                         
     3  0  0.50      -474.2095   2.0000                                         
     3  1  1.50      -376.9135   6.0000                                         
     3  2  2.50      -218.6898  10.0000                                         
     4  0  0.50       -62.1983   2.0000                                         
     4  0  0.50       -66.6685   0.0000                                         
     4  1  1.50       -36.4414   6.0000                                         
     4  1  1.50       -40.8175   0.0000                                         
     4  2  2.50        -2.3086   6.0000                                         
     4  3  2.50        -1.3606   0.0000                                         
   Description                                                                  
     l       E           TYP  RCUT    TYP  RCUT                                 
     0    -62.1983072     23  1.950                                             
     0     27.2116520     23  1.950                                             
     0    149.6640860     23  1.950                                             
     1    -36.4413666     23  1.800                                             
     1    -40.8174780     23  1.800                                             
     1     54.4233040     23  1.800                                             
     2     -2.3085597     23  2.000                                             
     2     -6.8029130     23  2.000                                             
     2    136.0582600     23  2.000                                             
     3     13.6058260     23  2.100                                             
     3     81.6349560     23  2.100                                             
  local pseudopotential read in
  partial core-charges read in
  partial kinetic energy density read in
  kinetic energy density of atom read in
  atomic valenz-charges read in
  non local Contribution for L=           0  read in
    real space projection operators read in
  non local Contribution for L=           0  read in
    real space projection operators read in
  non local Contribution for L=           0  read in
    real space projection operators read in
  non local Contribution for L=           1  read in
    real space projection operators read in
  non local Contribution for L=           1  read in
    real space projection operators read in
  non local Contribution for L=           1  read in
    real space projection operators read in
  non local Contribution for L=           2  read in
    real space projection operators read in
  non local Contribution for L=           2  read in
    real space projection operators read in
  non local Contribution for L=           2  read in
    real space projection operators read in
  non local Contribution for L=           3  read in
    real space projection operators read in
  non local Contribution for L=           3  read in
    real space projection operators read in
    PAW grid and wavefunctions read in
 
   number of l-projection  operators is LMAX  =          11
   number of lm-projection operators is LMMAX =          41
 
 POTCAR:    PAW_PBE Se_GW 20Mar2012               
   VRHFIN =Se: s2p4                                                             
   LEXCH  = PE                                                                  
   EATOM  =   257.1286 eV,   18.8984 Ry                                         
                                                                                
   TITEL  = PAW_PBE Se_GW 20Mar2012                                             
   LULTRA =        F    use ultrasoft PP ?                                      
   IUNSCR =        1    unscreen: 0-lin 1-nonlin 2-no                           
   RPACOR =    1.900    partial core radius                                     
   POMASS =   78.960; ZVAL   =    6.000    mass and valenz                      
   RCORE  =    2.100    outmost cutoff radius                                   
   RWIGS  =    2.200; RWIGS  =    1.164    wigner-seitz radius (au A)           
   ENMAX  =  211.555; ENMIN  =  158.666 eV                                      
   ICORE  =        3    local potential                                         
   LCOR   =        T    correct aug charges                                     
   LPAW   =        T    paw PP                                                  
   EAUG   =  446.842                                                            
   DEXC   =    0.000                                                            
   RMAX   =    2.147    core radius for proj-oper                               
   RAUG   =    1.300    factor for augmentation sphere                          
   RDEP   =    2.177    radius for radial grids                                 
   RDEPT  =    1.928    core radius for aug-charge                              
                                                                                
   Atomic configuration                                                         
   10 entries                                                                   
     n  l   j            E        occ.                                          
     1  0  0.50    -12503.4788   2.0000                                         
     2  0  0.50     -1606.9547   2.0000                                         
     2  1  1.50     -1413.3140   6.0000                                         
     3  0  0.50      -213.4885   2.0000                                         
     3  1  1.50      -152.9538   6.0000                                         
     3  2  2.50       -53.1221  10.0000                                         
     4  0  0.50       -17.2865   2.0000                                         
     4  1  0.50        -6.5110   4.0000                                         
     4  2  2.50        -6.8029   0.0000                                         
     4  3  2.50        -6.8029   0.0000                                         
   Description                                                                  
     l       E           TYP  RCUT    TYP  RCUT                                 
     0    -17.2865391     23  2.100                                             
     0     68.0291300     23  2.100                                             
     1     -6.5110285     23  2.100                                             
     1     81.6349560     23  2.100                                             
     2     -6.8029130     23  2.100                                             
     3     -1.3605826      7  2.100                                             
  local pseudopotential read in
  partial core-charges read in
  partial kinetic energy density read in
  kinetic energy density of atom read in
  atomic valenz-charges read in
  non local Contribution for L=           0  read in
    real space projection operators read in
  non local Contribution for L=           0  read in
    real space projection operators read in
  non local Contribution for L=           1  read in
    real space projection operators read in
  non local Contribution for L=           1  read in
    real space projection operators read in
  non local Contribution for L=           2  read in
    real space projection operators read in
    PAW grid and wavefunctions read in
 
   number of l-projection  operators is LMAX  =           5
   number of lm-projection operators is LMMAX =          13
 
  PAW_PBE Mo_sv_GW 05Dec2013            :
 energy of atom  1       EATOM=-1861.5185
 kinetic energy error for atom=    0.1105 (will be added to EATOM!!)
  PAW_PBE Se_GW 20Mar2012               :
 energy of atom  2       EATOM= -257.1286
 kinetic energy error for atom=    0.0034 (will be added to EATOM!!)
 
 
 POSCAR: Mo Se                                   
  positions in cartesian coordinates
  No initial velocities read in
 exchange correlation table for  LEXCH =        8
   RHO(1)=    0.500       N(1)  =     2000
   RHO(2)=  100.500       N(2)  =     4000
 


--------------------------------------------------------------------------------------------------------


 ion  position               nearest neighbor table
   1  0.167  0.333  0.371-   4 2.54   4 2.54   4 2.54   5 2.54   5 2.54   5 2.54
   2  0.833  0.667  0.500-   6 2.54   7 2.54   6 2.54   7 2.54   6 2.54   7 2.54
   3  0.167  0.333  0.629-   9 2.54   9 2.54   9 2.54   8 2.54   8 2.54   8 2.54
   4  0.833  0.667  0.404-   1 2.54   1 2.54   1 2.54
   5  0.833  0.667  0.337-   1 2.54   1 2.54   1 2.54
   6  0.167  0.333  0.533-   2 2.54   2 2.54   2 2.54
   7  0.167  0.333  0.467-   2 2.54   2 2.54   2 2.54
   8  0.833  0.667  0.663-   3 2.54   3 2.54   3 2.54
   9  0.833  0.667  0.596-   3 2.54   3 2.54   3 2.54
 
  LATTYP: Found a hexagonal cell.
 ALAT       =     3.3197487879
 C/A-ratio  =    15.0613806029
  
  Lattice vectors:
  
 A1 = (   3.3197487879,   0.0000000000,   0.0000000000)
 A2 = (  -1.6598743939,   2.8749867845,   0.0000000000)
 A3 = (   0.0000000000,   0.0000000000,  50.0000000000)


Analysis of symmetry for initial positions (statically):
=====================================================================
 Subroutine PRICEL returns:
 Original cell was already a primitive cell.
 

 Routine SETGRP: Setting up the symmetry group for a 
 hexagonal supercell.


 Subroutine GETGRP returns: Found 12 space group operations
 (whereof  4 operations were pure point group operations)
 out of a pool of 24 trial point group operations.


The static configuration has the point symmetry C_2v.
 The point group associated with its full space group is D_3h.


Analysis of symmetry for dynamics (positions and initial velocities):
=====================================================================
 Subroutine PRICEL returns:
 Original cell was already a primitive cell.
 

 Routine SETGRP: Setting up the symmetry group for a 
 hexagonal supercell.


 Subroutine GETGRP returns: Found 12 space group operations
 (whereof  4 operations were pure point group operations)
 out of a pool of 24 trial point group operations.


The dynamic configuration has the point symmetry C_2v.
 The point group associated with its full space group is D_3h.


 Subroutine INISYM returns: Found 12 space group operations
 (whereof  4 operations are pure point group operations),
 and found     1 'primitive' translations

 
 
 KPOINTS: KPOINTS created by Atomic Simulation Env

Automatic generation of k-mesh.
Space group operators:
 irot       det(A)        alpha          n_x          n_y          n_z        tau_x        tau_y        tau_z
    1     1.000000     0.000000     1.000000     0.000000     0.000000     0.000000     0.000000     0.000000
    2    -1.000000   180.000000     0.000000     0.000000     1.000000     0.000000     0.000000     0.000000
    3    -1.000000   180.000000     1.000000     0.000000     0.000000     0.000000     0.000000     0.000000
    4     1.000000   180.000000     0.000000     1.000000     0.000000     0.000000     0.000000     0.000000
    5    -1.000000    60.000000     0.000000     0.000000    -1.000000     0.000000     0.500000     0.000000
    6     1.000000   120.000000     0.000000     0.000000    -1.000000     0.500000     0.500000     0.000000
    7     1.000000   120.000000     0.000000     0.000000     1.000000     0.000000     0.500000     0.000000
    8    -1.000000    60.000000     0.000000     0.000000     1.000000     0.500000     0.500000     0.000000
    9     1.000000   180.000000     0.866025    -0.500000     0.000000     0.500000     0.500000     0.000000
   10    -1.000000   180.000000     0.500000    -0.866025     0.000000     0.000000     0.500000     0.000000
   11    -1.000000   180.000000    -0.500000    -0.866025     0.000000     0.500000     0.500000     0.000000
   12     1.000000   180.000000     0.866025     0.500000     0.000000     0.000000     0.500000     0.000000
 
 Subroutine IBZKPT returns following result:
 ===========================================
 
 Found     37 irreducible k-points:
 
 Following reciprocal coordinates:
            Coordinates               Weight
  0.000000  0.000000  0.000000      1.000000
  0.055556  0.000000  0.000000      6.000000
  0.111111  0.000000  0.000000      6.000000
  0.166667  0.000000  0.000000      6.000000
  0.222222  0.000000  0.000000      6.000000
  0.277778  0.000000  0.000000      6.000000
  0.333333  0.000000  0.000000      6.000000
  0.388889  0.000000  0.000000      6.000000
  0.444444  0.000000  0.000000      6.000000
  0.500000  0.000000  0.000000      3.000000
  0.055556  0.055556  0.000000      6.000000
  0.111111  0.055556  0.000000     12.000000
  0.166667  0.055556  0.000000     12.000000
  0.222222  0.055556  0.000000     12.000000
  0.277778  0.055556  0.000000     12.000000
  0.333333  0.055556  0.000000     12.000000
  0.388889  0.055556  0.000000     12.000000
  0.444444  0.055556  0.000000     12.000000
  0.111111  0.111111  0.000000      6.000000
  0.166667  0.111111  0.000000     12.000000
  0.222222  0.111111  0.000000     12.000000
  0.277778  0.111111  0.000000     12.000000
  0.333333  0.111111  0.000000     12.000000
  0.388889  0.111111  0.000000     12.000000
  0.444444  0.111111  0.000000      6.000000
  0.166667  0.166667  0.000000      6.000000
  0.222222  0.166667  0.000000     12.000000
  0.277778  0.166667  0.000000     12.000000
  0.333333  0.166667  0.000000     12.000000
  0.388889  0.166667  0.000000     12.000000
  0.222222  0.222222  0.000000      6.000000
  0.277778  0.222222  0.000000     12.000000
  0.333333  0.222222  0.000000     12.000000
  0.388889  0.222222  0.000000      6.000000
  0.277778  0.277778  0.000000      6.000000
  0.333333  0.277778  0.000000     12.000000
  0.333333  0.333333  0.000000      2.000000
 
 Following cartesian coordinates:
            Coordinates               Weight
  0.000000  0.000000  0.000000      1.000000
  0.016735  0.009662  0.000000      6.000000
  0.033470  0.019324  0.000000      6.000000
  0.050205  0.028986  0.000000      6.000000
  0.066939  0.038648  0.000000      6.000000
  0.083674  0.048309  0.000000      6.000000
  0.100409  0.057971  0.000000      6.000000
  0.117144  0.067633  0.000000      6.000000
  0.133879  0.077295  0.000000      6.000000
  0.150614  0.086957  0.000000      3.000000
  0.016735  0.028986  0.000000      6.000000
  0.033470  0.038648  0.000000     12.000000
  0.050205  0.048309  0.000000     12.000000
  0.066939  0.057971  0.000000     12.000000
  0.083674  0.067633  0.000000     12.000000
  0.100409  0.077295  0.000000     12.000000
  0.117144  0.086957  0.000000     12.000000
  0.133879  0.096619  0.000000     12.000000
  0.033470  0.057971  0.000000      6.000000
  0.050205  0.067633  0.000000     12.000000
  0.066939  0.077295  0.000000     12.000000
  0.083674  0.086957  0.000000     12.000000
  0.100409  0.096619  0.000000     12.000000
  0.117144  0.106281  0.000000     12.000000
  0.133879  0.115943  0.000000      6.000000
  0.050205  0.086957  0.000000      6.000000
  0.066939  0.096619  0.000000     12.000000
  0.083674  0.106281  0.000000     12.000000
  0.100409  0.115943  0.000000     12.000000
  0.117144  0.125604  0.000000     12.000000
  0.066939  0.115943  0.000000      6.000000
  0.083674  0.125604  0.000000     12.000000
  0.100409  0.135266  0.000000     12.000000
  0.117144  0.144928  0.000000      6.000000
  0.083674  0.144928  0.000000      6.000000
  0.100409  0.154590  0.000000     12.000000
  0.100409  0.173914  0.000000      2.000000
 
 TETIRR: Found    169 inequivalent tetrahedra from     1944
 
 Subroutine IBZKPT_HF returns following result:
 ==============================================
 
 Found    324 k-points in 1st BZ
 the following    324 k-points will be used (e.g. in the exchange kernel)
 Following reciprocal coordinates:   # in IRBZ
  0.000000  0.000000  0.000000    0.00308642   1 t-inv F
  0.055556  0.000000  0.000000    0.00308642   2 t-inv F
  0.111111  0.000000  0.000000    0.00308642   3 t-inv F
  0.166667  0.000000  0.000000    0.00308642   4 t-inv F
  0.222222  0.000000  0.000000    0.00308642   5 t-inv F
  0.277778  0.000000  0.000000    0.00308642   6 t-inv F
  0.333333  0.000000  0.000000    0.00308642   7 t-inv F
  0.388889  0.000000  0.000000    0.00308642   8 t-inv F
  0.444444  0.000000  0.000000    0.00308642   9 t-inv F
  0.500000  0.000000  0.000000    0.00308642  10 t-inv F
  0.055556  0.055556  0.000000    0.00308642  11 t-inv F
  0.111111  0.055556  0.000000    0.00308642  12 t-inv F
  0.166667  0.055556  0.000000    0.00308642  13 t-inv F
  0.222222  0.055556  0.000000    0.00308642  14 t-inv F
  0.277778  0.055556  0.000000    0.00308642  15 t-inv F
  0.333333  0.055556  0.000000    0.00308642  16 t-inv F
  0.388889  0.055556  0.000000    0.00308642  17 t-inv F
  0.444444  0.055556  0.000000    0.00308642  18 t-inv F
  0.111111  0.111111  0.000000    0.00308642  19 t-inv F
  0.166667  0.111111  0.000000    0.00308642  20 t-inv F
  0.222222  0.111111  0.000000    0.00308642  21 t-inv F
  0.277778  0.111111  0.000000    0.00308642  22 t-inv F
  0.333333  0.111111  0.000000    0.00308642  23 t-inv F
  0.388889  0.111111  0.000000    0.00308642  24 t-inv F
  0.444444  0.111111  0.000000    0.00308642  25 t-inv F
  0.166667  0.166667  0.000000    0.00308642  26 t-inv F
  0.222222  0.166667  0.000000    0.00308642  27 t-inv F
  0.277778  0.166667  0.000000    0.00308642  28 t-inv F
  0.333333  0.166667  0.000000    0.00308642  29 t-inv F
  0.388889  0.166667  0.000000    0.00308642  30 t-inv F
  0.222222  0.222222  0.000000    0.00308642  31 t-inv F
  0.277778  0.222222  0.000000    0.00308642  32 t-inv F
  0.333333  0.222222  0.000000    0.00308642  33 t-inv F
  0.388889  0.222222  0.000000    0.00308642  34 t-inv F
  0.277778  0.277778  0.000000    0.00308642  35 t-inv F
  0.333333  0.277778  0.000000    0.00308642  36 t-inv F
  0.333333  0.333333  0.000000    0.00308642  37 t-inv F
 -0.055556  0.055556  0.000000    0.00308642   2 t-inv F
  0.000000 -0.055556 -0.000000    0.00308642   2 t-inv F
 -0.111111  0.111111  0.000000    0.00308642   3 t-inv F
  0.000000 -0.111111 -0.000000    0.00308642   3 t-inv F
 -0.166667  0.166667  0.000000    0.00308642   4 t-inv F
  0.000000 -0.166667 -0.000000    0.00308642   4 t-inv F
 -0.222222  0.222222  0.000000    0.00308642   5 t-inv F
  0.000000 -0.222222 -0.000000    0.00308642   5 t-inv F
 -0.277778  0.277778  0.000000    0.00308642   6 t-inv F
  0.000000 -0.277778 -0.000000    0.00308642   6 t-inv F
 -0.333333  0.333333  0.000000    0.00308642   7 t-inv F
  0.000000 -0.333333 -0.000000    0.00308642   7 t-inv F
 -0.388889  0.388889  0.000000    0.00308642   8 t-inv F
  0.000000 -0.388889 -0.000000    0.00308642   8 t-inv F
 -0.444444  0.444444  0.000000    0.00308642   9 t-inv F
  0.000000 -0.444444 -0.000000    0.00308642   9 t-inv F
 -0.500000  0.500000  0.000000    0.00308642  10 t-inv F
  0.000000 -0.500000 -0.000000    0.00308642  10 t-inv F
 -0.055556  0.111111  0.000000    0.00308642  11 t-inv F
  0.055556 -0.111111 -0.000000    0.00308642  11 t-inv F
 -0.111111  0.055556  0.000000    0.00308642  11 t-inv F
 -0.055556 -0.055556 -0.000000    0.00308642  11 t-inv F
  0.111111 -0.055556  0.000000    0.00308642  11 t-inv F
 -0.111111  0.166667  0.000000    0.00308642  12 t-inv F
  0.055556 -0.166667 -0.000000    0.00308642  12 t-inv F
 -0.166667  0.111111  0.000000    0.00308642  12 t-inv F
 -0.055556 -0.111111 -0.000000    0.00308642  12 t-inv F
  0.166667 -0.055556  0.000000    0.00308642  12 t-inv F
 -0.166667  0.222222  0.000000    0.00308642  13 t-inv F
  0.055556 -0.222222 -0.000000    0.00308642  13 t-inv F
 -0.222222  0.166667  0.000000    0.00308642  13 t-inv F
 -0.055556 -0.166667 -0.000000    0.00308642  13 t-inv F
  0.222222 -0.055556  0.000000    0.00308642  13 t-inv F
 -0.222222  0.277778  0.000000    0.00308642  14 t-inv F
  0.055556 -0.277778 -0.000000    0.00308642  14 t-inv F
 -0.277778  0.222222  0.000000    0.00308642  14 t-inv F
 -0.055556 -0.222222 -0.000000    0.00308642  14 t-inv F
  0.277778 -0.055556  0.000000    0.00308642  14 t-inv F
 -0.277778  0.333333  0.000000    0.00308642  15 t-inv F
  0.055556 -0.333333 -0.000000    0.00308642  15 t-inv F
 -0.333333  0.277778  0.000000    0.00308642  15 t-inv F
 -0.055556 -0.277778 -0.000000    0.00308642  15 t-inv F
  0.333333 -0.055556  0.000000    0.00308642  15 t-inv F
 -0.333333  0.388889  0.000000    0.00308642  16 t-inv F
  0.055556 -0.388889 -0.000000    0.00308642  16 t-inv F
 -0.388889  0.333333  0.000000    0.00308642  16 t-inv F
 -0.055556 -0.333333 -0.000000    0.00308642  16 t-inv F
  0.388889 -0.055556  0.000000    0.00308642  16 t-inv F
 -0.388889  0.444444  0.000000    0.00308642  17 t-inv F
  0.055556 -0.444444 -0.000000    0.00308642  17 t-inv F
 -0.444444  0.388889  0.000000    0.00308642  17 t-inv F
 -0.055556 -0.388889 -0.000000    0.00308642  17 t-inv F
  0.444444 -0.055556  0.000000    0.00308642  17 t-inv F
 -0.444444  0.500000  0.000000    0.00308642  18 t-inv F
  0.055556 -0.500000 -0.000000    0.00308642  18 t-inv F
 -0.500000  0.444444  0.000000    0.00308642  18 t-inv F
 -0.055556 -0.444444 -0.000000    0.00308642  18 t-inv F
  0.500000 -0.055556  0.000000    0.00308642  18 t-inv F
 -0.111111  0.222222  0.000000    0.00308642  19 t-inv F
  0.111111 -0.222222 -0.000000    0.00308642  19 t-inv F
 -0.222222  0.111111  0.000000    0.00308642  19 t-inv F
 -0.111111 -0.111111 -0.000000    0.00308642  19 t-inv F
  0.222222 -0.111111  0.000000    0.00308642  19 t-inv F
 -0.166667  0.277778  0.000000    0.00308642  20 t-inv F
  0.111111 -0.277778 -0.000000    0.00308642  20 t-inv F
 -0.277778  0.166667  0.000000    0.00308642  20 t-inv F
 -0.111111 -0.166667 -0.000000    0.00308642  20 t-inv F
  0.277778 -0.111111  0.000000    0.00308642  20 t-inv F
 -0.222222  0.333333  0.000000    0.00308642  21 t-inv F
  0.111111 -0.333333 -0.000000    0.00308642  21 t-inv F
 -0.333333  0.222222  0.000000    0.00308642  21 t-inv F
 -0.111111 -0.222222 -0.000000    0.00308642  21 t-inv F
  0.333333 -0.111111  0.000000    0.00308642  21 t-inv F
 -0.277778  0.388889  0.000000    0.00308642  22 t-inv F
  0.111111 -0.388889 -0.000000    0.00308642  22 t-inv F
 -0.388889  0.277778  0.000000    0.00308642  22 t-inv F
 -0.111111 -0.277778 -0.000000    0.00308642  22 t-inv F
  0.388889 -0.111111  0.000000    0.00308642  22 t-inv F
 -0.333333  0.444444  0.000000    0.00308642  23 t-inv F
  0.111111 -0.444444 -0.000000    0.00308642  23 t-inv F
 -0.444444  0.333333  0.000000    0.00308642  23 t-inv F
 -0.111111 -0.333333 -0.000000    0.00308642  23 t-inv F
  0.444444 -0.111111  0.000000    0.00308642  23 t-inv F
 -0.388889  0.500000  0.000000    0.00308642  24 t-inv F
  0.111111 -0.500000 -0.000000    0.00308642  24 t-inv F
 -0.500000  0.388889  0.000000    0.00308642  24 t-inv F
 -0.111111 -0.388889 -0.000000    0.00308642  24 t-inv F
  0.500000 -0.111111  0.000000    0.00308642  24 t-inv F
 -0.444444  0.555556  0.000000    0.00308642  25 t-inv F
  0.111111 -0.555556 -0.000000    0.00308642  25 t-inv F
 -0.555556  0.444444  0.000000    0.00308642  25 t-inv F
 -0.111111 -0.444444 -0.000000    0.00308642  25 t-inv F
  0.555556 -0.111111  0.000000    0.00308642  25 t-inv F
 -0.166667  0.333333  0.000000    0.00308642  26 t-inv F
  0.166667 -0.333333 -0.000000    0.00308642  26 t-inv F
 -0.333333  0.166667  0.000000    0.00308642  26 t-inv F
 -0.166667 -0.166667 -0.000000    0.00308642  26 t-inv F
  0.333333 -0.166667  0.000000    0.00308642  26 t-inv F
 -0.222222  0.388889  0.000000    0.00308642  27 t-inv F
  0.166667 -0.388889 -0.000000    0.00308642  27 t-inv F
 -0.388889  0.222222  0.000000    0.00308642  27 t-inv F
 -0.166667 -0.222222 -0.000000    0.00308642  27 t-inv F
  0.388889 -0.166667  0.000000    0.00308642  27 t-inv F
 -0.277778  0.444444  0.000000    0.00308642  28 t-inv F
  0.166667 -0.444444 -0.000000    0.00308642  28 t-inv F
 -0.444444  0.277778  0.000000    0.00308642  28 t-inv F
 -0.166667 -0.277778 -0.000000    0.00308642  28 t-inv F
  0.444444 -0.166667  0.000000    0.00308642  28 t-inv F
 -0.333333  0.500000  0.000000    0.00308642  29 t-inv F
  0.166667 -0.500000 -0.000000    0.00308642  29 t-inv F
 -0.500000  0.333333  0.000000    0.00308642  29 t-inv F
 -0.166667 -0.333333 -0.000000    0.00308642  29 t-inv F
  0.500000 -0.166667  0.000000    0.00308642  29 t-inv F
 -0.388889  0.555556  0.000000    0.00308642  30 t-inv F
  0.166667 -0.555556 -0.000000    0.00308642  30 t-inv F
 -0.555556  0.388889  0.000000    0.00308642  30 t-inv F
 -0.166667 -0.388889 -0.000000    0.00308642  30 t-inv F
  0.555556 -0.166667  0.000000    0.00308642  30 t-inv F
 -0.222222  0.444444  0.000000    0.00308642  31 t-inv F
  0.222222 -0.444444 -0.000000    0.00308642  31 t-inv F
 -0.444444  0.222222  0.000000    0.00308642  31 t-inv F
 -0.222222 -0.222222 -0.000000    0.00308642  31 t-inv F
  0.444444 -0.222222  0.000000    0.00308642  31 t-inv F
 -0.277778  0.500000  0.000000    0.00308642  32 t-inv F
  0.222222 -0.500000 -0.000000    0.00308642  32 t-inv F
 -0.500000  0.277778  0.000000    0.00308642  32 t-inv F
 -0.222222 -0.277778 -0.000000    0.00308642  32 t-inv F
  0.500000 -0.222222  0.000000    0.00308642  32 t-inv F
 -0.333333  0.555556  0.000000    0.00308642  33 t-inv F
  0.222222 -0.555556 -0.000000    0.00308642  33 t-inv F
 -0.555556  0.333333  0.000000    0.00308642  33 t-inv F
 -0.222222 -0.333333 -0.000000    0.00308642  33 t-inv F
  0.555556 -0.222222  0.000000    0.00308642  33 t-inv F
 -0.388889  0.611111  0.000000    0.00308642  34 t-inv F
  0.222222 -0.611111 -0.000000    0.00308642  34 t-inv F
 -0.611111  0.388889  0.000000    0.00308642  34 t-inv F
 -0.222222 -0.388889 -0.000000    0.00308642  34 t-inv F
  0.611111 -0.222222  0.000000    0.00308642  34 t-inv F
 -0.277778  0.555556  0.000000    0.00308642  35 t-inv F
  0.277778 -0.555556 -0.000000    0.00308642  35 t-inv F
 -0.555556  0.277778  0.000000    0.00308642  35 t-inv F
 -0.277778 -0.277778 -0.000000    0.00308642  35 t-inv F
  0.555556 -0.277778  0.000000    0.00308642  35 t-inv F
 -0.333333  0.611111  0.000000    0.00308642  36 t-inv F
  0.277778 -0.611111 -0.000000    0.00308642  36 t-inv F
 -0.611111  0.333333  0.000000    0.00308642  36 t-inv F
 -0.277778 -0.333333 -0.000000    0.00308642  36 t-inv F
  0.611111 -0.277778  0.000000    0.00308642  36 t-inv F
 -0.333333  0.666667  0.000000    0.00308642  37 t-inv F
 -0.055556 -0.000000 -0.000000    0.00308642   2 t-inv T
  0.055556 -0.055556 -0.000000    0.00308642   2 t-inv T
 -0.000000  0.055556  0.000000    0.00308642   2 t-inv T
 -0.111111 -0.000000 -0.000000    0.00308642   3 t-inv T
  0.111111 -0.111111 -0.000000    0.00308642   3 t-inv T
 -0.000000  0.111111  0.000000    0.00308642   3 t-inv T
 -0.166667 -0.000000 -0.000000    0.00308642   4 t-inv T
  0.166667 -0.166667 -0.000000    0.00308642   4 t-inv T
 -0.000000  0.166667  0.000000    0.00308642   4 t-inv T
 -0.222222 -0.000000 -0.000000    0.00308642   5 t-inv T
  0.222222 -0.222222 -0.000000    0.00308642   5 t-inv T
 -0.000000  0.222222  0.000000    0.00308642   5 t-inv T
 -0.277778 -0.000000 -0.000000    0.00308642   6 t-inv T
  0.277778 -0.277778 -0.000000    0.00308642   6 t-inv T
 -0.000000  0.277778  0.000000    0.00308642   6 t-inv T
 -0.333333 -0.000000 -0.000000    0.00308642   7 t-inv T
  0.333333 -0.333333 -0.000000    0.00308642   7 t-inv T
 -0.000000  0.333333  0.000000    0.00308642   7 t-inv T
 -0.388889 -0.000000 -0.000000    0.00308642   8 t-inv T
  0.388889 -0.388889 -0.000000    0.00308642   8 t-inv T
 -0.000000  0.388889  0.000000    0.00308642   8 t-inv T
 -0.444444 -0.000000 -0.000000    0.00308642   9 t-inv T
  0.444444 -0.444444 -0.000000    0.00308642   9 t-inv T
 -0.000000  0.444444  0.000000    0.00308642   9 t-inv T
 -0.111111 -0.055556 -0.000000    0.00308642  12 t-inv T
  0.111111 -0.166667 -0.000000    0.00308642  12 t-inv T
 -0.055556  0.166667  0.000000    0.00308642  12 t-inv T
  0.166667 -0.111111 -0.000000    0.00308642  12 t-inv T
  0.055556  0.111111  0.000000    0.00308642  12 t-inv T
 -0.166667  0.055556 -0.000000    0.00308642  12 t-inv T
 -0.166667 -0.055556 -0.000000    0.00308642  13 t-inv T
  0.166667 -0.222222 -0.000000    0.00308642  13 t-inv T
 -0.055556  0.222222  0.000000    0.00308642  13 t-inv T
  0.222222 -0.166667 -0.000000    0.00308642  13 t-inv T
  0.055556  0.166667  0.000000    0.00308642  13 t-inv T
 -0.222222  0.055556 -0.000000    0.00308642  13 t-inv T
 -0.222222 -0.055556 -0.000000    0.00308642  14 t-inv T
  0.222222 -0.277778 -0.000000    0.00308642  14 t-inv T
 -0.055556  0.277778  0.000000    0.00308642  14 t-inv T
  0.277778 -0.222222 -0.000000    0.00308642  14 t-inv T
  0.055556  0.222222  0.000000    0.00308642  14 t-inv T
 -0.277778  0.055556 -0.000000    0.00308642  14 t-inv T
 -0.277778 -0.055556 -0.000000    0.00308642  15 t-inv T
  0.277778 -0.333333 -0.000000    0.00308642  15 t-inv T
 -0.055556  0.333333  0.000000    0.00308642  15 t-inv T
  0.333333 -0.277778 -0.000000    0.00308642  15 t-inv T
  0.055556  0.277778  0.000000    0.00308642  15 t-inv T
 -0.333333  0.055556 -0.000000    0.00308642  15 t-inv T
 -0.333333 -0.055556 -0.000000    0.00308642  16 t-inv T
  0.333333 -0.388889 -0.000000    0.00308642  16 t-inv T
 -0.055556  0.388889  0.000000    0.00308642  16 t-inv T
  0.388889 -0.333333 -0.000000    0.00308642  16 t-inv T
  0.055556  0.333333  0.000000    0.00308642  16 t-inv T
 -0.388889  0.055556 -0.000000    0.00308642  16 t-inv T
 -0.388889 -0.055556 -0.000000    0.00308642  17 t-inv T
  0.388889 -0.444444 -0.000000    0.00308642  17 t-inv T
 -0.055556  0.444444  0.000000    0.00308642  17 t-inv T
  0.444444 -0.388889 -0.000000    0.00308642  17 t-inv T
  0.055556  0.388889  0.000000    0.00308642  17 t-inv T
 -0.444444  0.055556 -0.000000    0.00308642  17 t-inv T
 -0.444444 -0.055556 -0.000000    0.00308642  18 t-inv T
  0.444444 -0.500000 -0.000000    0.00308642  18 t-inv T
 -0.055556  0.500000  0.000000    0.00308642  18 t-inv T
  0.500000 -0.444444 -0.000000    0.00308642  18 t-inv T
  0.055556  0.444444  0.000000    0.00308642  18 t-inv T
 -0.500000  0.055556 -0.000000    0.00308642  18 t-inv T
 -0.166667 -0.111111 -0.000000    0.00308642  20 t-inv T
  0.166667 -0.277778 -0.000000    0.00308642  20 t-inv T
 -0.111111  0.277778  0.000000    0.00308642  20 t-inv T
  0.277778 -0.166667 -0.000000    0.00308642  20 t-inv T
  0.111111  0.166667  0.000000    0.00308642  20 t-inv T
 -0.277778  0.111111 -0.000000    0.00308642  20 t-inv T
 -0.222222 -0.111111 -0.000000    0.00308642  21 t-inv T
  0.222222 -0.333333 -0.000000    0.00308642  21 t-inv T
 -0.111111  0.333333  0.000000    0.00308642  21 t-inv T
  0.333333 -0.222222 -0.000000    0.00308642  21 t-inv T
  0.111111  0.222222  0.000000    0.00308642  21 t-inv T
 -0.333333  0.111111 -0.000000    0.00308642  21 t-inv T
 -0.277778 -0.111111 -0.000000    0.00308642  22 t-inv T
  0.277778 -0.388889 -0.000000    0.00308642  22 t-inv T
 -0.111111  0.388889  0.000000    0.00308642  22 t-inv T
  0.388889 -0.277778 -0.000000    0.00308642  22 t-inv T
  0.111111  0.277778  0.000000    0.00308642  22 t-inv T
 -0.388889  0.111111 -0.000000    0.00308642  22 t-inv T
 -0.333333 -0.111111 -0.000000    0.00308642  23 t-inv T
  0.333333 -0.444444 -0.000000    0.00308642  23 t-inv T
 -0.111111  0.444444  0.000000    0.00308642  23 t-inv T
  0.444444 -0.333333 -0.000000    0.00308642  23 t-inv T
  0.111111  0.333333  0.000000    0.00308642  23 t-inv T
 -0.444444  0.111111 -0.000000    0.00308642  23 t-inv T
 -0.388889 -0.111111 -0.000000    0.00308642  24 t-inv T
  0.388889 -0.500000 -0.000000    0.00308642  24 t-inv T
 -0.111111  0.500000  0.000000    0.00308642  24 t-inv T
  0.500000 -0.388889 -0.000000    0.00308642  24 t-inv T
  0.111111  0.388889  0.000000    0.00308642  24 t-inv T
 -0.500000  0.111111 -0.000000    0.00308642  24 t-inv T
 -0.222222 -0.166667 -0.000000    0.00308642  27 t-inv T
  0.222222 -0.388889 -0.000000    0.00308642  27 t-inv T
 -0.166667  0.388889  0.000000    0.00308642  27 t-inv T
  0.388889 -0.222222 -0.000000    0.00308642  27 t-inv T
  0.166667  0.222222  0.000000    0.00308642  27 t-inv T
 -0.388889  0.166667 -0.000000    0.00308642  27 t-inv T
 -0.277778 -0.166667 -0.000000    0.00308642  28 t-inv T
  0.277778 -0.444444 -0.000000    0.00308642  28 t-inv T
 -0.166667  0.444444  0.000000    0.00308642  28 t-inv T
  0.444444 -0.277778 -0.000000    0.00308642  28 t-inv T
  0.166667  0.277778  0.000000    0.00308642  28 t-inv T
 -0.444444  0.166667 -0.000000    0.00308642  28 t-inv T
 -0.333333 -0.166667 -0.000000    0.00308642  29 t-inv T
  0.333333 -0.500000 -0.000000    0.00308642  29 t-inv T
 -0.166667  0.500000  0.000000    0.00308642  29 t-inv T
  0.500000 -0.333333 -0.000000    0.00308642  29 t-inv T
  0.166667  0.333333  0.000000    0.00308642  29 t-inv T
 -0.500000  0.166667 -0.000000    0.00308642  29 t-inv T
 -0.388889 -0.166667 -0.000000    0.00308642  30 t-inv T
  0.388889 -0.555556 -0.000000    0.00308642  30 t-inv T
 -0.166667  0.555556  0.000000    0.00308642  30 t-inv T
  0.555556 -0.388889 -0.000000    0.00308642  30 t-inv T
  0.166667  0.388889  0.000000    0.00308642  30 t-inv T
 -0.555556  0.166667 -0.000000    0.00308642  30 t-inv T
 -0.277778 -0.222222 -0.000000    0.00308642  32 t-inv T
  0.277778 -0.500000 -0.000000    0.00308642  32 t-inv T
 -0.222222  0.500000  0.000000    0.00308642  32 t-inv T
  0.500000 -0.277778 -0.000000    0.00308642  32 t-inv T
  0.222222  0.277778  0.000000    0.00308642  32 t-inv T
 -0.500000  0.222222 -0.000000    0.00308642  32 t-inv T
 -0.333333 -0.222222 -0.000000    0.00308642  33 t-inv T
  0.333333 -0.555556 -0.000000    0.00308642  33 t-inv T
 -0.222222  0.555556  0.000000    0.00308642  33 t-inv T
  0.555556 -0.333333 -0.000000    0.00308642  33 t-inv T
  0.222222  0.333333  0.000000    0.00308642  33 t-inv T
 -0.555556  0.222222 -0.000000    0.00308642  33 t-inv T
 -0.333333 -0.277778 -0.000000    0.00308642  36 t-inv T
  0.333333 -0.611111 -0.000000    0.00308642  36 t-inv T
 -0.277778  0.611111  0.000000    0.00308642  36 t-inv T
  0.611111 -0.333333 -0.000000    0.00308642  36 t-inv T
  0.277778  0.333333  0.000000    0.00308642  36 t-inv T
 -0.611111  0.277778 -0.000000    0.00308642  36 t-inv T


--------------------------------------------------------------------------------------------------------




 Dimension of arrays:
   k-points           NKPTS =     37   k-points in BZ     NKDIM =     37   number of bands    NBANDS=     56
   number of dos      NEDOS =    301   number of ions     NIONS =      9
   non local maximal  LDIM  =     11   non local SUM 2l+1 LMDIM =     41
   total plane-waves  NPLWV = 128000
   max r-space proj   IRMAX =      1   max aug-charges    IRDMAX=  11895
   dimension x,y,z NGX =    20 NGY =   20 NGZ =  320
   dimension x,y,z NGXF=    40 NGYF=   40 NGZF=  640
   support grid    NGXF=    40 NGYF=   40 NGZF=  640
   ions per type =               3   6
 NGX,Y,Z   is equivalent  to a cutoff of  10.02, 10.02, 10.64 a.u.
 NGXF,Y,Z  is equivalent  to a cutoff of  20.03, 20.03, 21.28 a.u.


 I would recommend the setting:
   dimension x,y,z NGX =    20 NGY =   20 NGZ =  303
 SYSTEM =  unknown system                          
 POSCAR =  Mo Se                                   

 Startparameter for this run:
   NWRITE =      2    write-flag & timer
   PREC   = accura    normal or accurate (medium, high low for compatibility)
   ISTART =      0    job   : 0-new  1-cont  2-samecut
   ICHARG =      2    charge: 1-file 2-atom 10-const
   ISPIN  =      1    spin polarized calculation?
   LNONCOLLINEAR =      F non collinear calculations
   LSORBIT =      F    spin-orbit coupling
   INIWAV =      1    electr: 0-lowe 1-rand  2-diag
   LASPH  =      F    aspherical Exc in radial PAW
   METAGGA=      F    non-selfconsistent MetaGGA calc.

 Electronic Relaxation 1
   ENCUT  =  344.9 eV  25.35 Ry    5.03 a.u.   5.03  5.03 75.72*2*pi/ulx,y,z
   ENINI  =  344.9     initial cutoff
   ENAUG  =  964.7 eV  augmentation charge cutoff
   NELM   =     60;   NELMIN=  5; NELMDL= -5     # of ELM steps 
   EDIFF  = 0.1E-07   stopping-criterion for ELM
   LREAL  =      F    real-space projection
   NLSPLINE    = F    spline interpolate recip. space projectors
   LCOMPAT=      F    compatible to vasp.4.4
   GGA_COMPAT  = T    GGA compatible to vasp.4.4-vasp.4.6
   LMAXPAW     = -100 max onsite density
   LMAXMIX     =    2 max onsite mixed and CHGCAR
   VOSKOWN=      0    Vosko Wilk Nusair interpolation
   ROPT   =    0.00000   0.00000
 Ionic relaxation
   EDIFFG = 0.1E-06   stopping-criterion for IOM
   NSW    =      0    number of steps for IOM
   NBLOCK =      1;   KBLOCK =      1    inner block; outer block 
   IBRION =     -1    ionic relax: 0-MD 1-quasi-New 2-CG
   NFREE  =      0    steps in history (QN), initial steepest desc. (CG)
   ISIF   =      2    stress and relaxation
   IWAVPR =     10    prediction:  0-non 1-charg 2-wave 3-comb
   ISYM   =      2    0-nonsym 1-usesym 2-fastsym
   LCORR  =      T    Harris-Foulkes like correction to forces

   POTIM  = 0.5000    time-step for ionic-motion
   TEIN   =    0.0    initial temperature
   TEBEG  =    0.0;   TEEND  =   0.0 temperature during run
   SMASS  =  -3.00    Nose mass-parameter (am)
   estimated Nose-frequenzy (Omega)   =  0.10E-29 period in steps =****** mass=  -0.252E-27a.u.
   SCALEE = 1.0000    scale energy and forces
   NPACO  =    256;   APACO  = 16.0  distance and # of slots for P.C.
   PSTRESS=    0.0 pullay stress

  Mass of Ions in am
   POMASS =  95.94 78.96
  Ionic Valenz
   ZVAL   =  14.00  6.00
  Atomic Wigner-Seitz radii
   RWIGS  =  -1.00 -1.00
  virtual crystal weights 
   VCA    =   1.00  1.00
   NELECT =      78.0000    total number of electrons
   NUPDOWN=      -1.0000    fix difference up-down

 DOS related values:
   EMIN   =  10.00;   EMAX   =-10.00  energy-range for DOS
   EFERMI =   0.00
   ISMEAR =    -5;   SIGMA  =   0.01  broadening in eV -4-tet -1-fermi 0-gaus

 Electronic relaxation 2 (details)
   IALGO  =     38    algorithm
   LDIAG  =      T    sub-space diagonalisation (order eigenvalues)
   LSUBROT=      F    optimize rotation matrix (better conditioning)
   TURBO    =      0    0=normal 1=particle mesh
   IRESTART =      0    0=no restart 2=restart with 2 vectors
   NREBOOT  =      0    no. of reboots
   NMIN     =      0    reboot dimension
   EREF     =   0.00    reference energy to select bands
   IMIX   =      4    mixing-type and parameters
     AMIX     =   0.40;   BMIX     =  1.00
     AMIX_MAG =   1.60;   BMIX_MAG =  1.00
     AMIN     =   0.10
     WC   =   100.;   INIMIX=   1;  MIXPRE=   1;  MAXMIX= -45

 Intra band minimization:
   WEIMIN = 0.0000     energy-eigenvalue tresh-hold
   EBREAK =  0.45E-10  absolut break condition
   DEPER  =   0.30     relativ break condition  

   TIME   =   0.40     timestep for ELM

  volume/ion in A,a.u.               =      53.02       357.82
  Fermi-wavevector in a.u.,A,eV,Ry     =   0.895095  1.691485 10.900931  0.801196
  Thomas-Fermi vector in A             =   2.017384
 
 Write flags
   LWAVE  =      T    write WAVECAR
   LCHARG =      T    write CHGCAR
   LVTOT  =      F    write LOCPOT, total local potential
   LVHAR  =      F    write LOCPOT, Hartree potential only
   LELF   =      F    write electronic localiz. function (ELF)
   LORBIT =      0    0 simple, 1 ext, 2 COOP (PROOUT)


 Dipole corrections
   LMONO  =      F    monopole corrections only (constant potential shift)
   LDIPOL =      F    correct potential (dipole corrections)
   IDIPOL =      0    1-x, 2-y, 3-z, 4-all directions 
   EPSILON=  1.0000000 bulk dielectric constant

 Exchange correlation treatment:
   GGA     =    PE    GGA type
   LEXCH   =     8    internal setting for exchange type
   VOSKOWN=      0    Vosko Wilk Nusair interpolation
   LHFCALC =     F    Hartree Fock is set to
   LHFONE  =     F    Hartree Fock one center treatment
   AEXX    =    0.0000 exact exchange contribution

 Linear response parameters
   LEPSILON=     T    determine dielectric tensor
   LRPA    =     F    only Hartree local field effects (RPA)
   LNABLA  =     F    use nabla operator in PAW spheres
   LVEL    =     F    velocity operator in full k-point grid
   LINTERFAST=   F  fast interpolation
   KINTER  =     0    interpolate to denser k-point grid
   CSHIFT  =0.1000    complex shift for real part using Kramers Kronig
   OMEGAMAX=  -1.0    maximum frequency
   DEG_THRESHOLD= 0.2000000E-02 threshold for treating states as degnerate
   RTIME   =    0.100 relaxation time in fs

 Orbital magnetization related:
   ORBITALMAG=     F  switch on orbital magnetization
   LCHIMAG   =     F  perturbation theory with respect to B field
   DQ        =  0.001000  dq finite difference perturbation B field



--------------------------------------------------------------------------------------------------------


 Static calculation
 charge density and potential will be updated during run
 non-spin polarized calculation
 Variant of blocked Davidson
 Davidson routine will perform the subspace rotation
 perform sub-space diagonalisation
    after iterative eigenvector-optimisation
 modified Broyden-mixing scheme, WC =      100.0
 initial mixing is a Kerker type mixing with AMIX =  0.4000 and BMIX =      1.0000
 Hartree-type preconditioning will be used
 using additional bands           17
 reciprocal scheme for non local part
 use partial core corrections
 calculate Harris-corrections to forces 
   (improved forces if not selfconsistent)
 use gradient corrections 
 use of overlap-Matrix (Vanderbilt PP)
 Fermi weights with tetrahedron method with Bloechl corrections


--------------------------------------------------------------------------------------------------------


  energy-cutoff  :      344.91
  volume of cell :      477.21
      direct lattice vectors                 reciprocal lattice vectors
     3.319748788  0.000000000  0.000000000     0.301227612  0.173913843  0.000000000
    -1.659874394  2.874986784  0.000000000     0.000000000  0.347827686  0.000000000
     0.000000000  0.000000000 50.000000000     0.000000000  0.000000000  0.020000000

  length of vectors
     3.319748788  3.319748788 50.000000000     0.347827686  0.347827686  0.020000000


 
 k-points in units of 2pi/SCALE and weight: KPOINTS created by Atomic Simulation Env
   0.00000000  0.00000000  0.00000000       0.003
   0.01673487  0.00966188  0.00000000       0.019
   0.03346973  0.01932376  0.00000000       0.019
   0.05020460  0.02898564  0.00000000       0.019
   0.06693947  0.03864752  0.00000000       0.019
   0.08367434  0.04830940  0.00000000       0.019
   0.10040920  0.05797128  0.00000000       0.019
   0.11714407  0.06763316  0.00000000       0.019
   0.13387894  0.07729504  0.00000000       0.019
   0.15061381  0.08695692  0.00000000       0.009
   0.01673487  0.02898564  0.00000000       0.019
   0.03346973  0.03864752  0.00000000       0.037
   0.05020460  0.04830940  0.00000000       0.037
   0.06693947  0.05797128  0.00000000       0.037
   0.08367434  0.06763316  0.00000000       0.037
   0.10040920  0.07729504  0.00000000       0.037
   0.11714407  0.08695692  0.00000000       0.037
   0.13387894  0.09661880  0.00000000       0.037
   0.03346973  0.05797128  0.00000000       0.019
   0.05020460  0.06763316  0.00000000       0.037
   0.06693947  0.07729504  0.00000000       0.037
   0.08367434  0.08695692  0.00000000       0.037
   0.10040920  0.09661880  0.00000000       0.037
   0.11714407  0.10628068  0.00000000       0.037
   0.13387894  0.11594256  0.00000000       0.019
   0.05020460  0.08695692  0.00000000       0.019
   0.06693947  0.09661880  0.00000000       0.037
   0.08367434  0.10628068  0.00000000       0.037
   0.10040920  0.11594256  0.00000000       0.037
   0.11714407  0.12560444  0.00000000       0.037
   0.06693947  0.11594256  0.00000000       0.019
   0.08367434  0.12560444  0.00000000       0.037
   0.10040920  0.13526632  0.00000000       0.037
   0.11714407  0.14492820  0.00000000       0.019
   0.08367434  0.14492820  0.00000000       0.019
   0.10040920  0.15459008  0.00000000       0.037
   0.10040920  0.17391384  0.00000000       0.006
 
 k-points in reciprocal lattice and weights: KPOINTS created by Atomic Simulation Env
   0.00000000  0.00000000  0.00000000       0.003
   0.05555556  0.00000000  0.00000000       0.019
   0.11111111  0.00000000  0.00000000       0.019
   0.16666667  0.00000000  0.00000000       0.019
   0.22222222  0.00000000  0.00000000       0.019
   0.27777778  0.00000000  0.00000000       0.019
   0.33333333  0.00000000  0.00000000       0.019
   0.38888889  0.00000000  0.00000000       0.019
   0.44444444  0.00000000  0.00000000       0.019
   0.50000000  0.00000000  0.00000000       0.009
   0.05555556  0.05555556  0.00000000       0.019
   0.11111111  0.05555556  0.00000000       0.037
   0.16666667  0.05555556  0.00000000       0.037
   0.22222222  0.05555556  0.00000000       0.037
   0.27777778  0.05555556  0.00000000       0.037
   0.33333333  0.05555556  0.00000000       0.037
   0.38888889  0.05555556  0.00000000       0.037
   0.44444444  0.05555556  0.00000000       0.037
   0.11111111  0.11111111  0.00000000       0.019
   0.16666667  0.11111111  0.00000000       0.037
   0.22222222  0.11111111  0.00000000       0.037
   0.27777778  0.11111111  0.00000000       0.037
   0.33333333  0.11111111  0.00000000       0.037
   0.38888889  0.11111111  0.00000000       0.037
   0.44444444  0.11111111  0.00000000       0.019
   0.16666667  0.16666667  0.00000000       0.019
   0.22222222  0.16666667  0.00000000       0.037
   0.27777778  0.16666667  0.00000000       0.037
   0.33333333  0.16666667  0.00000000       0.037
   0.38888889  0.16666667  0.00000000       0.037
   0.22222222  0.22222222  0.00000000       0.019
   0.27777778  0.22222222  0.00000000       0.037
   0.33333333  0.22222222  0.00000000       0.037
   0.38888889  0.22222222  0.00000000       0.019
   0.27777778  0.27777778  0.00000000       0.019
   0.33333333  0.27777778  0.00000000       0.037
   0.33333333  0.33333333  0.00000000       0.006
 
 position of ions in fractional coordinates (direct lattice) 
   0.16666667  0.33333333  0.37080000
   0.83333333  0.66666667  0.50000000
   0.16666667  0.33333333  0.62920000
   0.83333333  0.66666667  0.40418059
   0.83333333  0.66666667  0.33741941
   0.16666667  0.33333333  0.53338059
   0.16666667  0.33333333  0.46661941
   0.83333333  0.66666667  0.66258059
   0.83333333  0.66666667  0.59581941
 
 position of ions in cartesian coordinates  (Angst):
  -0.00000000  0.95832893 18.54000000
   1.65987439  1.91665786 25.00000000
  -0.00000000  0.95832893 31.46000000
   1.65987439  1.91665786 20.20902948
   1.65987439  1.91665786 16.87097052
  -0.00000000  0.95832893 26.66902948
  -0.00000000  0.95832893 23.33097052
   1.65987439  1.91665786 33.12902948
   1.65987439  1.91665786 29.79097052
 


--------------------------------------------------------------------------------------------------------


 k-point  1 :   0.0000 0.0000 0.0000  plane waves:    6703
 k-point  2 :   0.0556 0.0000 0.0000  plane waves:    6781
 k-point  3 :   0.1111 0.0000 0.0000  plane waves:    6827
 k-point  4 :   0.1667 0.0000 0.0000  plane waves:    6855
 k-point  5 :   0.2222 0.0000 0.0000  plane waves:    6875
 k-point  6 :   0.2778 0.0000 0.0000  plane waves:    6915
 k-point  7 :   0.3333 0.0000 0.0000  plane waves:    6923
 k-point  8 :   0.3889 0.0000 0.0000  plane waves:    6942
 k-point  9 :   0.4444 0.0000 0.0000  plane waves:    6972
 k-point 10 :   0.5000 0.0000 0.0000  plane waves:    6978
 k-point 11 :   0.0556 0.0556 0.0000  plane waves:    6837
 k-point 12 :   0.1111 0.0556 0.0000  plane waves:    6869
 k-point 13 :   0.1667 0.0556 0.0000  plane waves:    6871
 k-point 14 :   0.2222 0.0556 0.0000  plane waves:    6889
 k-point 15 :   0.2778 0.0556 0.0000  plane waves:    6931
 k-point 16 :   0.3333 0.0556 0.0000  plane waves:    6924
 k-point 17 :   0.3889 0.0556 0.0000  plane waves:    6942
 k-point 18 :   0.4444 0.0556 0.0000  plane waves:    6965
 k-point 19 :   0.1111 0.1111 0.0000  plane waves:    6875
 k-point 20 :   0.1667 0.1111 0.0000  plane waves:    6900
 k-point 21 :   0.2222 0.1111 0.0000  plane waves:    6946
 k-point 22 :   0.2778 0.1111 0.0000  plane waves:    6966
 k-point 23 :   0.3333 0.1111 0.0000  plane waves:    6965
 k-point 24 :   0.3889 0.1111 0.0000  plane waves:    6961
 k-point 25 :   0.4444 0.1111 0.0000  plane waves:    6955
 k-point 26 :   0.1667 0.1667 0.0000  plane waves:    6949
 k-point 27 :   0.2222 0.1667 0.0000  plane waves:    6973
 k-point 28 :   0.2778 0.1667 0.0000  plane waves:    6980
 k-point 29 :   0.3333 0.1667 0.0000  plane waves:    6980
 k-point 30 :   0.3889 0.1667 0.0000  plane waves:    6987
 k-point 31 :   0.2222 0.2222 0.0000  plane waves:    6983
 k-point 32 :   0.2778 0.2222 0.0000  plane waves:    6993
 k-point 33 :   0.3333 0.2222 0.0000  plane waves:    7009
 k-point 34 :   0.3889 0.2222 0.0000  plane waves:    7007
 k-point 35 :   0.2778 0.2778 0.0000  plane waves:    7003
 k-point 36 :   0.3333 0.2778 0.0000  plane waves:    7017
 k-point 37 :   0.3333 0.3333 0.0000  plane waves:    7029

 maximum and minimum number of plane-waves per node :      7029     6703

 maximum number of plane-waves:      7029
 maximum index in each direction: 
   IXMAX=    4   IYMAX=    5   IZMAX=   75
   IXMIN=   -5   IYMIN=   -5   IZMIN=  -75

 NGX is ok and might be reduce to  20
 WARNING: aliasing errors must be expected set NGY to  22 to avoid them
 NGZ is ok and might be reduce to 302
 aliasing errors are usually negligible using standard VASP settings
 and one can safely disregard these warnings

 serial   3D FFT for wavefunctions
 parallel 3D FFT for charge:
    minimum data exchange during FFTs selected (reduces bandwidth)


 total amount of memory used by VASP on root node   221740. kBytes
========================================================================

   base      :      30000. kBytes
   nonl-proj :     172279. kBytes
   fftplans  :       2116. kBytes
   grid      :       8000. kBytes
   one-center:        726. kBytes
   wavefun   :       8619. kBytes
 
     INWAV:  cpu time    0.0000: real time    0.0004
 Broyden mixing: mesh for mixing (old mesh)
   NGX =  9   NGY =  9   NGZ =151
  (NGX  = 40   NGY  = 40   NGZ  =640)
  gives a total of  12231 points

 initial charge density was supplied:
 charge density of overlapping atoms calculated
 number of electron      78.0000000 magnetization 
 keeping initial charge density in first step


--------------------------------------------------------------------------------------------------------


 Maximum index for augmentation-charges          951 (set IRDMAX)


--------------------------------------------------------------------------------------------------------


 First call to EWALD:  gamma=   0.227
 Maximum number of real-space cells 7x 7x 1
 Maximum number of reciprocal cells 1x 1x15

 FEWALD executed in parallel
    FEWALD:  cpu time    0.0080: real time    0.0080


----------------------------------------- Iteration    1(   1)  ---------------------------------------


    POTLOK:  cpu time    0.2040: real time    0.2042
    SETDIJ:  cpu time    0.0440: real time    0.0450
     EDDAV:  cpu time   24.7242: real time   24.9112
 BZINTS: Fermi energy: 10.229352; 78.000000 electrons
         Band energy:-721.466050;  BLOECHL correction: -0.074883
       DOS:  cpu time    0.1340: real time    0.1337
    --------------------------------------------
      LOOP:  cpu time   25.1132: real time   25.3055

 eigenvalue-minimisations  :  5180
 total energy-change (2. order) : 0.4922547E+03  (-0.3329253E+04)
 number of electron      78.0000000 magnetization 
 augmentation part       78.0000000 magnetization 

 Free energy of the ion-electron system (eV)
  ---------------------------------------------------
  alpha Z        PSCENC =       123.67516534
  Ewald energy   TEWEN  =     89397.59364982
  -Hartree energ DENC   =    -95727.18691908
  -exchange      EXHF   =         0.00000000
  -V(xc)+E(xc)   XCENC  =       196.45749763
  PAW double counting   =      5788.05564288    -5691.84965901
  entropy T*S    EENTRO =         0.00000000
  eigenvalues    EBANDS =      -721.46605025
  atomic energy  EATOM  =      7126.97541265
  Solvation  Ediel_sol  =         0.00000000
  ---------------------------------------------------
  free energy    TOTEN  =       492.25473998 eV

  energy without entropy =      492.25473998  energy(sigma->0) =      492.25473998


--------------------------------------------------------------------------------------------------------




----------------------------------------- Iteration    1(   2)  ---------------------------------------


     EDDAV:  cpu time   37.3933: real time   37.7204
 BZINTS: Fermi energy:  2.009505; 78.000000 electrons
         Band energy:***********;  BLOECHL correction:  0.000000
       DOS:  cpu time    0.0270: real time    0.0275
    --------------------------------------------
      LOOP:  cpu time   37.4863: real time   37.8229

 eigenvalue-minimisations  :  5908
 total energy-change (2. order) :-0.5150970E+03  (-0.5091977E+03)
 number of electron      78.0000000 magnetization 
 augmentation part       78.0000000 magnetization 

 Free energy of the ion-electron system (eV)
  ---------------------------------------------------
  alpha Z        PSCENC =       123.67516534
  Ewald energy   TEWEN  =     89397.59364982
  -Hartree energ DENC   =    -95727.18691908
  -exchange      EXHF   =         0.00000000
  -V(xc)+E(xc)   XCENC  =       196.45749763
  PAW double counting   =      5788.05564288    -5691.84965901
  entropy T*S    EENTRO =         0.00000000
  eigenvalues    EBANDS =     -1236.56308410
  atomic energy  EATOM  =      7126.97541265
  Solvation  Ediel_sol  =         0.00000000
  ---------------------------------------------------
  free energy    TOTEN  =       -22.84229387 eV

  energy without entropy =      -22.84229387  energy(sigma->0) =      -22.84229387


--------------------------------------------------------------------------------------------------------




----------------------------------------- Iteration    1(   3)  ---------------------------------------


     EDDAV:  cpu time   39.2170: real time   39.7842
 BZINTS: Fermi energy:  0.257596; 78.000000 electrons
         Band energy:***********;  BLOECHL correction:  0.000000
       DOS:  cpu time    0.0280: real time    0.0280
    --------------------------------------------
      LOOP:  cpu time   39.2550: real time   39.8491

 eigenvalue-minimisations  :  6188
 total energy-change (2. order) :-0.4690872E+02  (-0.4669187E+02)
 number of electron      78.0000000 magnetization 
 augmentation part       78.0000000 magnetization 

 Free energy of the ion-electron system (eV)
  ---------------------------------------------------
  alpha Z        PSCENC =       123.67516534
  Ewald energy   TEWEN  =     89397.59364982
  -Hartree energ DENC   =    -95727.18691908
  -exchange      EXHF   =         0.00000000
  -V(xc)+E(xc)   XCENC  =       196.45749763
  PAW double counting   =      5788.05564288    -5691.84965901
  entropy T*S    EENTRO =         0.00000000
  eigenvalues    EBANDS =     -1283.47180042
  atomic energy  EATOM  =      7126.97541265
  Solvation  Ediel_sol  =         0.00000000
  ---------------------------------------------------
  free energy    TOTEN  =       -69.75101020 eV

  energy without entropy =      -69.75101020  energy(sigma->0) =      -69.75101020


--------------------------------------------------------------------------------------------------------




----------------------------------------- Iteration    1(   4)  ---------------------------------------


     EDDAV:  cpu time   36.3075: real time   36.6376
 BZINTS: Fermi energy:  0.227929; 78.000000 electrons
         Band energy:***********;  BLOECHL correction:  0.000000
       DOS:  cpu time    0.0230: real time    0.0235
    --------------------------------------------
      LOOP:  cpu time   36.3375: real time   36.6786

 eigenvalue-minimisations  :  5796
 total energy-change (2. order) :-0.1422278E+01  (-0.1419795E+01)
 number of electron      78.0000000 magnetization 
 augmentation part       78.0000000 magnetization 

 Free energy of the ion-electron system (eV)
  ---------------------------------------------------
  alpha Z        PSCENC =       123.67516534
  Ewald energy   TEWEN  =     89397.59364982
  -Hartree energ DENC   =    -95727.18691908
  -exchange      EXHF   =         0.00000000
  -V(xc)+E(xc)   XCENC  =       196.45749763
  PAW double counting   =      5788.05564288    -5691.84965901
  entropy T*S    EENTRO =         0.00000000
  eigenvalues    EBANDS =     -1284.89407796
  atomic energy  EATOM  =      7126.97541265
  Solvation  Ediel_sol  =         0.00000000
  ---------------------------------------------------
  free energy    TOTEN  =       -71.17328773 eV

  energy without entropy =      -71.17328773  energy(sigma->0) =      -71.17328773


--------------------------------------------------------------------------------------------------------




----------------------------------------- Iteration    1(   5)  ---------------------------------------


     EDDAV:  cpu time   36.8714: real time   37.1839
 BZINTS: Fermi energy:  0.286785; 78.000000 electrons
         Band energy:***********;  BLOECHL correction:  0.000000
       DOS:  cpu time    0.0270: real time    0.0372
    CHARGE:  cpu time    1.1118: real time    1.1300
    MIXING:  cpu time    0.0060: real time    0.0063
    --------------------------------------------
      LOOP:  cpu time   38.0272: real time   38.3877

 eigenvalue-minimisations  :  5908
 total energy-change (2. order) :-0.2755145E-01  (-0.2754102E-01)
 number of electron      78.0000002 magnetization 
 augmentation part       -8.3592156 magnetization 

 Broyden mixing:
  rms(total) = 0.16807E+01    rms(broyden)= 0.16795E+01
  rms(prec ) = 0.17257E+01
  weight for this iteration     100.00

 Free energy of the ion-electron system (eV)
  ---------------------------------------------------
  alpha Z        PSCENC =       123.67516534
  Ewald energy   TEWEN  =     89397.59364982
  -Hartree energ DENC   =    -95727.18691908
  -exchange      EXHF   =         0.00000000
  -V(xc)+E(xc)   XCENC  =       196.45749763
  PAW double counting   =      5788.05564288    -5691.84965901
  entropy T*S    EENTRO =         0.00000000
  eigenvalues    EBANDS =     -1284.92162941
  atomic energy  EATOM  =      7126.97541265
  Solvation  Ediel_sol  =         0.00000000
  ---------------------------------------------------
  free energy    TOTEN  =       -71.20083918 eV

  energy without entropy =      -71.20083918  energy(sigma->0) =      -71.20083918


--------------------------------------------------------------------------------------------------------




----------------------------------------- Iteration    1(   6)  ---------------------------------------


    POTLOK:  cpu time    0.1880: real time    0.1886
    SETDIJ:  cpu time    0.0440: real time    0.0443
     EDDAV:  cpu time   31.5502: real time   31.7756
 BZINTS: Fermi energy: -1.561403; 78.000000 electrons
         Band energy:***********;  BLOECHL correction:  0.000000
       DOS:  cpu time    0.0250: real time    0.0258
    CHARGE:  cpu time    1.0768: real time    1.0829
    MIXING:  cpu time    0.0070: real time    0.0065
    --------------------------------------------
      LOOP:  cpu time   32.8950: real time   33.1378

 eigenvalue-minimisations  :  6888
 total energy-change (2. order) : 0.5658025E+01  (-0.1069365E+02)
 number of electron      77.9999998 magnetization 
 augmentation part       -6.4993082 magnetization 

 Broyden mixing:
  rms(total) = 0.10378E+01    rms(broyden)= 0.10372E+01
  rms(prec ) = 0.10835E+01
  weight for this iteration     100.00

 eigenvalues of (default mixing * dielectric matrix)
  average eigenvalue GAMMA=   0.6649
  0.6649

 Free energy of the ion-electron system (eV)
  ---------------------------------------------------
  alpha Z        PSCENC =       123.67516534
  Ewald energy   TEWEN  =     89397.59364982
  -Hartree energ DENC   =    -95557.98087913
  -exchange      EXHF   =         0.00000000
  -V(xc)+E(xc)   XCENC  =       192.22842712
  PAW double counting   =      5489.59698313    -5397.12108746
  entropy T*S    EENTRO =         0.00000000
  eigenvalues    EBANDS =     -1440.51048591
  atomic energy  EATOM  =      7126.97541265
  Solvation  Ediel_sol  =         0.00000000
  ---------------------------------------------------
  free energy    TOTEN  =       -65.54281445 eV

  energy without entropy =      -65.54281445  energy(sigma->0) =      -65.54281445


--------------------------------------------------------------------------------------------------------




----------------------------------------- Iteration    1(   7)  ---------------------------------------


    POTLOK:  cpu time    0.1910: real time    0.1909
    SETDIJ:  cpu time    0.0430: real time    0.0437
     EDDAV:  cpu time   34.1368: real time   34.4739
 BZINTS: Fermi energy: -0.689772; 78.000000 electrons
         Band energy:***********;  BLOECHL correction:  0.000000
       DOS:  cpu time    0.0310: real time    0.0313
    CHARGE:  cpu time    1.1318: real time    1.1394
    MIXING:  cpu time    0.0070: real time    0.0076
    --------------------------------------------
      LOOP:  cpu time   35.5446: real time   35.9124

 eigenvalue-minimisations  :  7252
 total energy-change (2. order) : 0.3042533E+01  (-0.3049514E+01)
 number of electron      78.0000000 magnetization 
 augmentation part       -7.3974958 magnetization 

 Broyden mixing:
  rms(total) = 0.48453E+00    rms(broyden)= 0.48419E+00
  rms(prec ) = 0.48976E+00
  weight for this iteration     100.00

 eigenvalues of (default mixing * dielectric matrix)
  average eigenvalue GAMMA=   1.5676
  2.5799  0.5554

 Free energy of the ion-electron system (eV)
  ---------------------------------------------------
  alpha Z        PSCENC =       123.67516534
  Ewald energy   TEWEN  =     89397.59364982
  -Hartree energ DENC   =    -95650.03569152
  -exchange      EXHF   =         0.00000000
  -V(xc)+E(xc)   XCENC  =       193.72857023
  PAW double counting   =      5675.95300978    -5581.51852667
  entropy T*S    EENTRO =         0.00000000
  eigenvalues    EBANDS =     -1348.87187069
  atomic energy  EATOM  =      7126.97541265
  Solvation  Ediel_sol  =         0.00000000
  ---------------------------------------------------
  free energy    TOTEN  =       -62.50028106 eV

  energy without entropy =      -62.50028106  energy(sigma->0) =      -62.50028106


--------------------------------------------------------------------------------------------------------




----------------------------------------- Iteration    1(   8)  ---------------------------------------


    POTLOK:  cpu time    0.1890: real time    0.1903
    SETDIJ:  cpu time    0.0430: real time    0.0443
     EDDAV:  cpu time   30.3314: real time   30.5491
 BZINTS: Fermi energy: -0.969488; 78.000000 electrons
         Band energy:***********;  BLOECHL correction:  0.000000
       DOS:  cpu time    0.0310: real time    0.0317
    CHARGE:  cpu time    1.1108: real time    1.1177
    MIXING:  cpu time    0.0060: real time    0.0062
    --------------------------------------------
      LOOP:  cpu time   31.7162: real time   31.9529

 eigenvalue-minimisations  :  6664
 total energy-change (2. order) : 0.1903748E+00  (-0.3564651E+00)
 number of electron      78.0000000 magnetization 
 augmentation part       -7.1202997 magnetization 

 Broyden mixing:
  rms(total) = 0.16386E+00    rms(broyden)= 0.16379E+00
  rms(prec ) = 0.16944E+00
  weight for this iteration     100.00

 eigenvalues of (default mixing * dielectric matrix)
  average eigenvalue GAMMA=   1.3334
  0.5318  1.0870  2.3814

 Free energy of the ion-electron system (eV)
  ---------------------------------------------------
  alpha Z        PSCENC =       123.67516534
  Ewald energy   TEWEN  =     89397.59364982
  -Hartree energ DENC   =    -95631.38708679
  -exchange      EXHF   =         0.00000000
  -V(xc)+E(xc)   XCENC  =       192.91125622
  PAW double counting   =      5641.01464760    -5546.61550410
  entropy T*S    EENTRO =         0.00000000
  eigenvalues    EBANDS =     -1366.47744697
  atomic energy  EATOM  =      7126.97541265
  Solvation  Ediel_sol  =         0.00000000
  ---------------------------------------------------
  free energy    TOTEN  =       -62.30990624 eV

  energy without entropy =      -62.30990624  energy(sigma->0) =      -62.30990624


--------------------------------------------------------------------------------------------------------




----------------------------------------- Iteration    1(   9)  ---------------------------------------


    POTLOK:  cpu time    0.1900: real time    0.1905
    SETDIJ:  cpu time    0.0430: real time    0.0442
     EDDAV:  cpu time   30.8293: real time   31.0204
 BZINTS: Fermi energy: -0.671599; 78.000000 electrons
         Band energy:***********;  BLOECHL correction:  0.000000
       DOS:  cpu time    0.0250: real time    0.0260
    CHARGE:  cpu time    1.0748: real time    1.0807
    MIXING:  cpu time    0.0080: real time    0.0074
    --------------------------------------------
      LOOP:  cpu time   32.1741: real time   32.3948

 eigenvalue-minimisations  :  6692
 total energy-change (2. order) : 0.7775136E-01  (-0.4830726E-01)
 number of electron      78.0000000 magnetization 
 augmentation part       -7.2437461 magnetization 

 Broyden mixing:
  rms(total) = 0.33414E-01    rms(broyden)= 0.33348E-01
  rms(prec ) = 0.33993E-01
  weight for this iteration     100.00

 eigenvalues of (default mixing * dielectric matrix)
  average eigenvalue GAMMA=   1.3143
  2.4670  1.3993  0.5325  0.8583

 Free energy of the ion-electron system (eV)
  ---------------------------------------------------
  alpha Z        PSCENC =       123.67516534
  Ewald energy   TEWEN  =     89397.59364982
  -Hartree energ DENC   =    -95646.65133856
  -exchange      EXHF   =         0.00000000
  -V(xc)+E(xc)   XCENC  =       193.23718012
  PAW double counting   =      5667.64543318    -5572.94390038
  entropy T*S    EENTRO =         0.00000000
  eigenvalues    EBANDS =     -1351.76375705
  atomic energy  EATOM  =      7126.97541265
  Solvation  Ediel_sol  =         0.00000000
  ---------------------------------------------------
  free energy    TOTEN  =       -62.23215488 eV

  energy without entropy =      -62.23215488  energy(sigma->0) =      -62.23215488


--------------------------------------------------------------------------------------------------------




----------------------------------------- Iteration    1(  10)  ---------------------------------------


    POTLOK:  cpu time    0.1920: real time    0.1931
    SETDIJ:  cpu time    0.0450: real time    0.0447
     EDDAV:  cpu time   25.1602: real time   25.3351
 BZINTS: Fermi energy: -0.656833; 78.000000 electrons
         Band energy:***********;  BLOECHL correction:  0.000000
       DOS:  cpu time    0.0260: real time    0.0258
    CHARGE:  cpu time    1.0498: real time    1.0568
    MIXING:  cpu time    0.0070: real time    0.0074
    --------------------------------------------
      LOOP:  cpu time   26.4830: real time   26.6755

 eigenvalue-minimisations  :  5516
 total energy-change (2. order) : 0.4723249E-03  (-0.2847627E-02)
 number of electron      78.0000000 magnetization 
 augmentation part       -7.2557639 magnetization 

 Broyden mixing:
  rms(total) = 0.15879E-01    rms(broyden)= 0.15866E-01
  rms(prec ) = 0.16442E-01
  weight for this iteration     100.00

 eigenvalues of (default mixing * dielectric matrix)
  average eigenvalue GAMMA=   1.2945
  2.5700  1.7269  0.9935  0.5340  0.6483

 Free energy of the ion-electron system (eV)
  ---------------------------------------------------
  alpha Z        PSCENC =       123.67516534
  Ewald energy   TEWEN  =     89397.59364982
  -Hartree energ DENC   =    -95648.58847537
  -exchange      EXHF   =         0.00000000
  -V(xc)+E(xc)   XCENC  =       193.30916867
  PAW double counting   =      5672.32373649    -5577.55977983
  entropy T*S    EENTRO =         0.00000000
  eigenvalues    EBANDS =     -1349.96056031
  atomic energy  EATOM  =      7126.97541265
  Solvation  Ediel_sol  =         0.00000000
  ---------------------------------------------------
  free energy    TOTEN  =       -62.23168255 eV

  energy without entropy =      -62.23168255  energy(sigma->0) =      -62.23168255


--------------------------------------------------------------------------------------------------------




----------------------------------------- Iteration    1(  11)  ---------------------------------------


    POTLOK:  cpu time    0.1800: real time    0.1813
    SETDIJ:  cpu time    0.0430: real time    0.0439
     EDDAV:  cpu time   36.6874: real time   37.7372
 BZINTS: Fermi energy: -0.630010; 78.000000 electrons
         Band energy:***********;  BLOECHL correction:  0.000000
       DOS:  cpu time    0.0260: real time    0.0260
    CHARGE:  cpu time    1.0568: real time    1.0648
    MIXING:  cpu time    0.0080: real time    0.0076
    --------------------------------------------
      LOOP:  cpu time   38.0062: real time   39.0711

 eigenvalue-minimisations  :  6104
 total energy-change (2. order) : 0.5828284E-03  (-0.5334131E-03)
 number of electron      78.0000000 magnetization 
 augmentation part       -7.2526038 magnetization 

 Broyden mixing:
  rms(total) = 0.64710E-02    rms(broyden)= 0.64670E-02
  rms(prec ) = 0.68507E-02
  weight for this iteration     100.00

 eigenvalues of (default mixing * dielectric matrix)
  average eigenvalue GAMMA=   1.2831
  2.4651  1.5732  1.5732  0.9840  0.5334  0.5700

 Free energy of the ion-electron system (eV)
  ---------------------------------------------------
  alpha Z        PSCENC =       123.67516534
  Ewald energy   TEWEN  =     89397.59364982
  -Hartree energ DENC   =    -95650.81340648
  -exchange      EXHF   =         0.00000000
  -V(xc)+E(xc)   XCENC  =       193.32740104
  PAW double counting   =      5672.14366608    -5577.38230901
  entropy T*S    EENTRO =         0.00000000
  eigenvalues    EBANDS =     -1347.75067916
  atomic energy  EATOM  =      7126.97541265
  Solvation  Ediel_sol  =         0.00000000
  ---------------------------------------------------
  free energy    TOTEN  =       -62.23109972 eV

  energy without entropy =      -62.23109972  energy(sigma->0) =      -62.23109972


--------------------------------------------------------------------------------------------------------




----------------------------------------- Iteration    1(  12)  ---------------------------------------


    POTLOK:  cpu time    0.1810: real time    0.1830
    SETDIJ:  cpu time    0.0440: real time    0.0435
     EDDAV:  cpu time   36.3805: real time   36.9866
 BZINTS: Fermi energy: -0.612317; 78.000000 electrons
         Band energy:***********;  BLOECHL correction:  0.000000
       DOS:  cpu time    0.0270: real time    0.0271
    CHARGE:  cpu time    1.0778: real time    1.0846
    MIXING:  cpu time    0.0070: real time    0.0077
    --------------------------------------------
      LOOP:  cpu time   37.7203: real time   38.3826

 eigenvalue-minimisations  :  5880
 total energy-change (2. order) : 0.1656041E-03  (-0.7754621E-04)
 number of electron      78.0000000 magnetization 
 augmentation part       -7.2493883 magnetization 

 Broyden mixing:
  rms(total) = 0.31391E-02    rms(broyden)= 0.31376E-02
  rms(prec ) = 0.34877E-02
  weight for this iteration     100.00

 eigenvalues of (default mixing * dielectric matrix)
  average eigenvalue GAMMA=   1.3207
  2.3800  2.3800  1.3434  1.1628  0.8723  0.5344  0.5720

 Free energy of the ion-electron system (eV)
  ---------------------------------------------------
  alpha Z        PSCENC =       123.67516534
  Ewald energy   TEWEN  =     89397.59364982
  -Hartree energ DENC   =    -95652.29048867
  -exchange      EXHF   =         0.00000000
  -V(xc)+E(xc)   XCENC  =       193.32167959
  PAW double counting   =      5670.24078179    -5575.50822048
  entropy T*S    EENTRO =         0.00000000
  eigenvalues    EBANDS =     -1346.23891415
  atomic energy  EATOM  =      7126.97541265
  Solvation  Ediel_sol  =         0.00000000
  ---------------------------------------------------
  free energy    TOTEN  =       -62.23093412 eV

  energy without entropy =      -62.23093412  energy(sigma->0) =      -62.23093412


--------------------------------------------------------------------------------------------------------




----------------------------------------- Iteration    1(  13)  ---------------------------------------


    POTLOK:  cpu time    0.1990: real time    0.1996
    SETDIJ:  cpu time    0.0440: real time    0.0449
     EDDAV:  cpu time   27.3848: real time   27.5853
 BZINTS: Fermi energy: -0.595322; 78.000000 electrons
         Band energy:***********;  BLOECHL correction:  0.000000
       DOS:  cpu time    0.0250: real time    0.0257
    CHARGE:  cpu time    1.0598: real time    1.0675
    MIXING:  cpu time    0.0070: real time    0.0071
    --------------------------------------------
      LOOP:  cpu time   28.7226: real time   28.9383

 eigenvalue-minimisations  :  5992
 total energy-change (2. order) : 0.8638439E-04  (-0.1722583E-04)
 number of electron      78.0000000 magnetization 
 augmentation part       -7.2493699 magnetization 

 Broyden mixing:
  rms(total) = 0.16630E-02    rms(broyden)= 0.16616E-02
  rms(prec ) = 0.19873E-02
  weight for this iteration     100.00

 eigenvalues of (default mixing * dielectric matrix)
  average eigenvalue GAMMA=   1.3606
  2.6945  2.4936  1.4159  1.4159  0.9457  0.8106  0.5337  0.5746

 Free energy of the ion-electron system (eV)
  ---------------------------------------------------
  alpha Z        PSCENC =       123.67516534
  Ewald energy   TEWEN  =     89397.59364982
  -Hartree energ DENC   =    -95653.81091188
  -exchange      EXHF   =         0.00000000
  -V(xc)+E(xc)   XCENC  =       193.32894759
  PAW double counting   =      5669.50612541    -5574.78281368
  entropy T*S    EENTRO =         0.00000000
  eigenvalues    EBANDS =     -1344.71642297
  atomic energy  EATOM  =      7126.97541265
  Solvation  Ediel_sol  =         0.00000000
  ---------------------------------------------------
  free energy    TOTEN  =       -62.23084773 eV

  energy without entropy =      -62.23084773  energy(sigma->0) =      -62.23084773


--------------------------------------------------------------------------------------------------------




----------------------------------------- Iteration    1(  14)  ---------------------------------------


    POTLOK:  cpu time    0.1830: real time    0.1834
    SETDIJ:  cpu time    0.0430: real time    0.0435
     EDDAV:  cpu time   36.0675: real time   36.8914
 BZINTS: Fermi energy: -0.578456; 78.000000 electrons
         Band energy:***********;  BLOECHL correction:  0.000000
       DOS:  cpu time    0.0260: real time    0.0261
    CHARGE:  cpu time    1.0648: real time    1.0705
    MIXING:  cpu time    0.0070: real time    0.0078
    --------------------------------------------
[...]
    --------------------------------------------
      LOOP:  cpu time   26.0390: real time   26.2684

 Broyden mixing:
  rms(total) = 0.54698E-05    rms(broyden)= 0.54671E-05
  rms(prec ) = 0.73378E-05
  weight for this iteration     100.00

 eigenvalues of (default mixing * dielectric matrix)
  average eigenvalue GAMMA=   2.2207
  7.8125  6.7963  3.7801  3.7801  2.5270  2.5270  1.8406  1.8406  1.4713  1.0981
  0.7561  0.9771  0.9771  0.8896  0.8896  0.8971  0.5534  0.5590

 Free energy of the ion-electron system (eV)
  ---------------------------------------------------
  -Hartree energ DENC   =        -0.55023673
  -V(xc)+E(xc)   XCENC  =         0.00788630
  PAW double counting   =         0.01909826       -0.01891963
  entropy T*S    EENTRO =         0.00000000
  eigenvalues    EBANDS =        -0.14180601
  ---------------------------------------------------
  free energy    TOTEN  =        -0.68397781 eV

  energy without entropy =       -0.68397781


----------------------------------------- Iteration    3(  21)  ---------------------------------------


   POT+DIJ:  cpu time    0.4909: real time    0.4960
    HAMIL1:  cpu time    4.5323: real time    4.5776
    LRDIAG:  cpu time    0.8829: real time    0.8879
    LRDIIS:  cpu time   16.2095: real time   16.3540
    LRDIAG:  cpu time    0.8789: real time    0.8832
    MIXING:  cpu time    0.0150: real time    0.0143
    --------------------------------------------
      LOOP:  cpu time   25.2392: real time   25.4637

 Broyden mixing:
  rms(total) = 0.32481E-05    rms(broyden)= 0.32478E-05
  rms(prec ) = 0.43211E-05
  weight for this iteration     100.00

 eigenvalues of (default mixing * dielectric matrix)
  average eigenvalue GAMMA=   2.2104
  7.7868  7.0342  3.9226  3.9226  2.6150  2.6150  1.8782  1.8782  1.3678  1.3678
  1.0546  1.0546  0.7561  0.8943  0.8943  0.9210  0.9210  0.5534  0.5596

 Free energy of the ion-electron system (eV)
  ---------------------------------------------------
  -Hartree energ DENC   =        -0.55023352
  -V(xc)+E(xc)   XCENC  =         0.00788573
  PAW double counting   =         0.01909966       -0.01892109
  entropy T*S    EENTRO =         0.00000000
  eigenvalues    EBANDS =        -0.14176290
  ---------------------------------------------------
  free energy    TOTEN  =        -0.68393212 eV

  energy without entropy =       -0.68393212


----------------------------------------- Iteration    3(  22)  ---------------------------------------


   POT+DIJ:  cpu time    0.4819: real time    0.4853
    HAMIL1:  cpu time    4.5423: real time    4.5809
    LRDIAG:  cpu time    0.8919: real time    0.8955
    LRDIIS:  cpu time   16.1655: real time   16.2918
    LRDIAG:  cpu time    0.8769: real time    0.8839
    MIXING:  cpu time    0.0140: real time    0.0145
    --------------------------------------------
      LOOP:  cpu time   25.1912: real time   25.3957

 Broyden mixing:
  rms(total) = 0.22816E-05    rms(broyden)= 0.22810E-05
  rms(prec ) = 0.29510E-05
  weight for this iteration     100.00

 eigenvalues of (default mixing * dielectric matrix)
  average eigenvalue GAMMA=   2.2247
  7.5470  7.5470  4.1634  4.1634  2.7810  2.7810  2.0383  2.0383  1.5535  1.5535
  0.5534  1.0403  1.0403  0.8942  0.8942  0.9217  0.9217  0.7558  0.7452  0.5602

 Free energy of the ion-electron system (eV)
  ---------------------------------------------------
  -Hartree energ DENC   =        -0.55023146
  -V(xc)+E(xc)   XCENC  =         0.00788530
  PAW double counting   =         0.01910254       -0.01892399
  entropy T*S    EENTRO =         0.00000000
  eigenvalues    EBANDS =        -0.14170922
  ---------------------------------------------------
  free energy    TOTEN  =        -0.68387683 eV

  energy without entropy =       -0.68387683


----------------------------------------- Iteration    3(  23)  ---------------------------------------


   POT+DIJ:  cpu time    0.4839: real time    0.4876
    HAMIL1:  cpu time    4.5593: real time    4.6085
    LRDIAG:  cpu time    0.8839: real time    0.8875
    LRDIIS:  cpu time   16.0706: real time   16.2090
    LRDIAG:  cpu time    0.8509: real time    0.8561
    MIXING:  cpu time    0.0160: real time    0.0159
    --------------------------------------------
      LOOP:  cpu time   25.0872: real time   25.3167

 Broyden mixing:
  rms(total) = 0.16400E-05    rms(broyden)= 0.16396E-05
  rms(prec ) = 0.19594E-05
  weight for this iteration     100.00

 eigenvalues of (default mixing * dielectric matrix)
  average eigenvalue GAMMA=   2.2380
  7.7700  7.7700  4.4788  4.4788  2.9099  2.9099  2.1340  2.1340  1.5925  1.5925
  0.7561  1.0398  1.0398  1.0029  1.0029  0.8900  0.8900  0.9096  0.5534  0.5606
  0.5830

 Free energy of the ion-electron system (eV)
  ---------------------------------------------------
  -Hartree energ DENC   =        -0.55023190
  -V(xc)+E(xc)   XCENC  =         0.00788504
  PAW double counting   =         0.01910282       -0.01892426
  entropy T*S    EENTRO =         0.00000000
  eigenvalues    EBANDS =        -0.14168632
  ---------------------------------------------------
  free energy    TOTEN  =        -0.68385461 eV

  energy without entropy =       -0.68385461


----------------------------------------- Iteration    3(  24)  ---------------------------------------


   POT+DIJ:  cpu time    0.4809: real time    0.4843
    HAMIL1:  cpu time    4.5173: real time    4.5744
    LRDIAG:  cpu time    0.9079: real time    0.9158
    LRDIIS:  cpu time   15.8196: real time   15.9733
    LRDIAG:  cpu time    0.8509: real time    0.8566
    MIXING:  cpu time    0.0160: real time    0.0157
    --------------------------------------------
      LOOP:  cpu time   24.8092: real time   25.0678

 Broyden mixing:
  rms(total) = 0.92920E-06    rms(broyden)= 0.92903E-06
  rms(prec ) = 0.10871E-05
  weight for this iteration     100.00

 eigenvalues of (default mixing * dielectric matrix)
  average eigenvalue GAMMA=   2.3225
  8.2105  8.2105  5.4351  4.3954  3.0340  3.0340  2.2878  2.2878  1.7736  1.7736
  1.4905  1.1047  0.7561  0.9997  0.9997  0.8920  0.8920  0.9168  0.9168  0.5534
  0.5592  0.5706

 Free energy of the ion-electron system (eV)
  ---------------------------------------------------
  -Hartree energ DENC   =        -0.55023344
  -V(xc)+E(xc)   XCENC  =         0.00788498
  PAW double counting   =         0.01910153       -0.01892296
  entropy T*S    EENTRO =         0.00000000
  eigenvalues    EBANDS =        -0.14167821
  ---------------------------------------------------
  free energy    TOTEN  =        -0.68384809 eV

  energy without entropy =       -0.68384809


------------------------ aborting loop because EDIFF is reached ----------------------------------------


 change of polarisation eV/A/(eV/A) component  3 :    -0.000     0.000     1.344
 dielectric tensor                  component  3 :    -0.000     0.000     1.510


--------------------------------------------------------------------------------------------------------


    FORLOC:  cpu time    0.0180: real time    0.0180
    FORNL :  cpu time    6.2041: real time    6.2356
    STRESS:  cpu time   25.3531: real time   25.5777
    FORCOR:  cpu time    0.2060: real time    0.2067
    OFIELD:  cpu time    0.0000: real time    0.0003

  Hirshfeld charges:
            ion         q(e)     
   ------------------------------
      1     Mo          0.310
      2     Mo          0.308
      3     Mo          0.310
      4     Se         -0.154
      5     Se         -0.155
      6     Se         -0.154
      7     Se         -0.154
      8     Se         -0.155
      9     Se         -0.154

  Tkatchenko/Scheffler method for vdW energy calculation
  ---------------------------------------------------------------------------------------------

  Parameters of vdW forcefield:
            C6ts              R0ts           ALPHAts        RELVOL
            (au)              (au)            (au)                
   ---------------------------------------------------------------
   Mo       1086.657          4.138         90.875          1.028
   Mo       1094.542          4.143         91.204          1.031
   Mo       1086.657          4.138         90.875          1.028
   Se        215.629          4.062         25.333          1.013
   Se        211.151          4.048         25.068          1.003
   Se        215.625          4.062         25.333          1.013
   Se        215.625          4.062         25.333          1.013
   Se        211.152          4.048         25.068          1.003
   Se        215.629          4.062         25.333          1.013
  Edisp (eV):   -2.59699
    FORVDW:  cpu time    2.1897: real time    2.2055
    FORLOC:  cpu time    0.0180: real time    0.0185
    FORNL :  cpu time    6.2371: real time    6.2681
    STRESS:  cpu time   25.3841: real time   25.5877
    FORCOR:  cpu time    0.2060: real time    0.2066
    OFIELD:  cpu time    0.0010: real time    0.0006

  Hirshfeld charges:
            ion         q(e)     
   ------------------------------
      1     Mo          0.310
      2     Mo          0.308
      3     Mo          0.310
      4     Se         -0.154
      5     Se         -0.155
      6     Se         -0.154
      7     Se         -0.154
      8     Se         -0.155
      9     Se         -0.154

  Tkatchenko/Scheffler method for vdW energy calculation
  ---------------------------------------------------------------------------------------------

  Parameters of vdW forcefield:
            C6ts              R0ts           ALPHAts        RELVOL
            (au)              (au)            (au)                
   ---------------------------------------------------------------
   Mo       1086.657          4.138         90.875          1.028
   Mo       1094.542          4.143         91.204          1.031
   Mo       1086.657          4.138         90.875          1.028
   Se        215.629          4.062         25.333          1.013
   Se        211.152          4.048         25.068          1.003
   Se        215.625          4.062         25.333          1.013
   Se        215.625          4.062         25.333          1.013
   Se        211.151          4.048         25.068          1.003
   Se        215.629          4.062         25.333          1.013
  Edisp (eV):   -2.59699
    FORVDW:  cpu time    2.1787: real time    2.1972
    FORNLD:  cpu time   18.3852: real time   18.5471

 PIEZOELECTRIC TENSOR FIELD DIRECTION 3  (e Angst)
 -----------------------------------------------------------------------------
    -0.00007 -0.00000 -0.00000           (  0.00000 -0.00000 -0.00000)
    -0.00000 -0.00007  0.00000           ( -0.00000  0.00000  0.00000)
    -0.00000  0.00000 -0.00007           ( -0.00000  0.00000  0.00000)

 PIEZOELECTRIC TENSOR FIELD DIRECTION 3  (C/m^2)
 -----------------------------------------------------------------------------
    -0.00000 -0.00000 -0.00000
    -0.00000 -0.00000  0.00000
    -0.00000  0.00000 -0.00000


      POSITION         DIRECTION 3           BORN EFFECTIVE CHARGE    (rigid.aug.   ionic)
 -----------------------------------------------------------------------------------------
     -0.00000      0.95833     18.54000    -0.00000  0.00000-20.78934 (  0.16873 14.00000)
      1.65987      1.91666     25.00000     0.00000  0.00000 -0.09873 (  0.16860 14.00000)
     -0.00000      0.95833     31.46000     0.00000  0.00000-20.78933 (  0.16873 14.00000)
      1.65987      1.91666     20.20903    -0.00000 -0.00000 -0.07759 (  1.12429  6.00000)
      1.65987      1.91666     16.87097    -0.00000 -0.00000  1.21598 (  1.12264  6.00000)
     -0.00000      0.95833     26.66903    -0.00000 -0.00000  0.09025 (  1.12430  6.00000)
     -0.00000      0.95833     23.33097     0.00000 -0.00000  0.09026 (  1.12430  6.00000)
      1.65987      1.91666     33.12903     0.00000  0.00000  1.21598 (  1.12264  6.00000)
      1.65987      1.91666     29.79097    -0.00000 -0.00000 -0.07759 (  1.12429  6.00000)
 -----------------------------------------------------------------------------------------
    total drift (improves with k-points):  -0.00000 -0.00000-39.22011




--------------------------------------------------------------------------------------------------------


  LATTYP: Found a hexagonal cell.
 ALAT       =     3.3197487879
 C/A-ratio  =    15.0613806029
  
  Lattice vectors:
  
 A1 = (   3.3197487879,   0.0000000000,   0.0000000000)
 A2 = (  -1.6598743939,   2.8749867845,   0.0000000000)
 A3 = (   0.0000000000,   0.0000000000,  50.0000000000)


Analysis of symmetry for initial positions (statically):
=====================================================================
 Subroutine PRICEL returns:
 Original cell was already a primitive cell.
 

 Routine SETGRP: Setting up the symmetry group for a 
 hexagonal supercell.


 Subroutine GETGRP returns: Found 12 space group operations
 (whereof  4 operations were pure point group operations)
 out of a pool of 24 trial point group operations.


The static configuration has the point symmetry C_2v.
 The point group associated with its full space group is D_3h.


Analysis of symmetry for dynamics (positions and initial velocities):
=====================================================================
 Subroutine PRICEL returns:
 Original cell was already a primitive cell.
 

 Routine SETGRP: Setting up the symmetry group for a 
 hexagonal supercell.


 Subroutine GETGRP returns: Found 12 space group operations
 (whereof  4 operations were pure point group operations)
 out of a pool of 24 trial point group operations.


The dynamic configuration has the point symmetry C_2v.
 The point group associated with its full space group is D_3h.


 Subroutine INISYM returns: Found 12 space group operations
 (whereof  4 operations are pure point group operations),
 and found     1 'primitive' translations



 MACROSCOPIC STATIC DIELECTRIC TENSOR (including local field effects in DFT)
 ------------------------------------------------------
           7.150641    -0.000000     0.000000
           0.000000     7.150641     0.000000
          -0.000000     0.000000     1.509779
 ------------------------------------------------------



--------------------------------------------------------------------------------------------------------


  LATTYP: Found a hexagonal cell.
 ALAT       =     3.3197487879
 C/A-ratio  =    15.0613806029
  
  Lattice vectors:
  
 A1 = (   3.3197487879,   0.0000000000,   0.0000000000)
 A2 = (  -1.6598743939,   2.8749867845,   0.0000000000)
 A3 = (   0.0000000000,   0.0000000000,  50.0000000000)


Analysis of symmetry for initial positions (statically):
=====================================================================
 Subroutine PRICEL returns:
 Original cell was already a primitive cell.
 

 Routine SETGRP: Setting up the symmetry group for a 
 hexagonal supercell.


 Subroutine GETGRP returns: Found 12 space group operations
 (whereof  4 operations were pure point group operations)
 out of a pool of 24 trial point group operations.


The static configuration has the point symmetry C_2v.
 The point group associated with its full space group is D_3h.


Analysis of symmetry for dynamics (positions and initial velocities):
=====================================================================
 Subroutine PRICEL returns:
 Original cell was already a primitive cell.
 

 Routine SETGRP: Setting up the symmetry group for a 
 hexagonal supercell.


 Subroutine GETGRP returns: Found 12 space group operations
 (whereof  4 operations were pure point group operations)
 out of a pool of 24 trial point group operations.


The dynamic configuration has the point symmetry C_2v.
 The point group associated with its full space group is D_3h.


 Subroutine INISYM returns: Found 12 space group operations
 (whereof  4 operations are pure point group operations),
 and found     1 'primitive' translations



--------------------------------------------------------------------------------------------------------




 MACROSCOPIC STATIC DIELECTRIC TENSOR (including local field effects in DFT)
 ------------------------------------------------------
           7.150641    -0.000000     0.000000
           0.000000     7.150641     0.000000
          -0.000000     0.000000     1.509779
 ------------------------------------------------------


 PIEZOELECTRIC TENSOR  for field in x, y, z        (e  Angst)
          XX          YY          ZZ          XY          YZ          ZX
  --------------------------------------------------------------------------------
  x    -0.00742     0.00600     0.00008    -1.61640     0.00000     0.00000
  y    -1.62390     1.62770     0.00030     0.00000     0.00000     0.00000
  z    -0.00007    -0.00007    -0.00007    -0.00000     0.00000    -0.00000

 PIEZOELECTRIC TENSOR  for field in x, y, z        (C/m^2)
          XX          YY          ZZ          XY          YZ          ZX
  --------------------------------------------------------------------------------
  x     0.00000     0.00000     0.00000    -0.05443     0.00000     0.00000
  y    -0.05443     0.05443     0.00000     0.00000     0.00000     0.00000
  z     0.00000     0.00000     0.00000     0.00000     0.00000     0.00000
 
 BORN EFFECTIVE CHARGES (in e, cummulative output)
 -------------------------------------------------
 ion    1
    1    -1.75377    -0.00065     0.00001
    2    -0.00000    -1.75413    -0.00003
    3    -0.00000     0.00000   -20.78934
 ion    2
    1    -1.74326     0.00068     0.00000
    2     0.00000    -1.74296     0.00000
    3     0.00000     0.00000    -0.09873
 ion    3
    1    -1.75377    -0.00065    -0.00001
    2    -0.00000    -1.75413     0.00003
    3     0.00000     0.00000   -20.78933
 ion    4
    1     0.86447    -0.00031    -0.00026
    2    -0.00000     0.86477     0.00068
    3    -0.00000    -0.00000    -0.07759
 ion    5
    1     0.88025    -0.00034     0.00015
    2     0.00000     0.88048    -0.00042
    3    -0.00000    -0.00000     1.21598
 ion    6
    1     0.86728     0.00032    -0.00026
    2     0.00000     0.86695     0.00066
    3    -0.00000    -0.00000     0.09025
 ion    7
    1     0.86728     0.00032     0.00026
    2     0.00000     0.86695    -0.00066
    3     0.00000    -0.00000     0.09026
 ion    8
    1     0.88025    -0.00034    -0.00015
    2     0.00000     0.88048     0.00042
    3     0.00000     0.00000     1.21598
 ion    9
    1     0.86447    -0.00031     0.00026
    2    -0.00000     0.86477    -0.00068
    3    -0.00000    -0.00000    -0.07759


--------------------------------------------------------------------------------------------------------


 writing wavefunctions
     LOOP+:  cpu time 6911.8772: real time 6971.7767
    4ORBIT:  cpu time    0.0000: real time    0.0000
 BZINTS: Fermi energy: -0.528172; 78.000000 electrons
         Band energy:***********;  BLOECHL correction:  0.000000

 total amount of memory used by VASP on root node   221740. kBytes
========================================================================

   base      :      30000. kBytes
   nonl-proj :     172279. kBytes
   fftplans  :       2116. kBytes
   grid      :       8000. kBytes
   one-center:        726. kBytes
   wavefun   :       8619. kBytes
 
  
  
 General timing and accounting informations for this job:
 ========================================================
  
                  Total CPU time used (sec):     6929.322
                            User time (sec):     6775.147
                          System time (sec):      154.175
                         Elapsed time (sec):     6991.062
  
                   Maximum memory used (kb):     1036680.
                   Average memory used (kb):           0.
  
                          Minor page faults:      7581736
                          Major page faults:           10
                 Voluntary context switches:         8429
