   6   6   0   0
  0.7316673E+02  0.3184067E-09  0.3184067E-09  0.5000000E-08  0.5000000E-15
  1.000000000000000E-004
  CAR 
 unknown system                          
     13.43589903    -67.39523715  301     -2.32617252      1.00000000
    -67.395  0.0000E+00  0.0000E+00
    -67.126  0.0000E+00  0.0000E+00
    -66.856  0.0000E+00  0.0000E+00
    -66.587  0.0000E+00  0.0000E+00
    -66.317  0.0000E+00  0.0000E+00
    -66.048  0.0000E+00  0.0000E+00
    -65.779  0.0000E+00  0.0000E+00
    -65.509  0.0000E+00  0.0000E+00
    -65.240  0.0000E+00  0.0000E+00
    -64.970  0.0000E+00  0.0000E+00
    -64.701  0.0000E+00  0.0000E+00
    -64.431  0.0000E+00  0.0000E+00
    -64.162  0.0000E+00  0.0000E+00
    -63.893  0.0000E+00  0.0000E+00
    -63.623  0.0000E+00  0.4000E+01
    -63.354  0.0000E+00  0.4000E+01
    -63.084  0.0000E+00  0.4000E+01
    -62.815  0.0000E+00  0.4000E+01
    -62.545  0.0000E+00  0.4000E+01
    -62.276  0.0000E+00  0.4000E+01
    -62.006  0.0000E+00  0.4000E+01
    -61.737  0.0000E+00  0.4000E+01
    -61.468  0.0000E+00  0.4000E+01
    -61.198  0.0000E+00  0.4000E+01
    -60.929  0.0000E+00  0.4000E+01
    -60.659  0.0000E+00  0.4000E+01
    -60.390  0.0000E+00  0.4000E+01
    -60.120  0.0000E+00  0.4000E+01
    -59.851  0.0000E+00  0.4000E+01
    -59.582  0.0000E+00  0.4000E+01
    -59.312  0.0000E+00  0.4000E+01
    -59.043  0.0000E+00  0.4000E+01
    -58.773  0.0000E+00  0.4000E+01
    -58.504  0.0000E+00  0.4000E+01
    -58.234  0.0000E+00  0.4000E+01
    -57.965  0.0000E+00  0.4000E+01
    -57.696  0.0000E+00  0.4000E+01
    -57.426  0.0000E+00  0.4000E+01
    -57.157  0.0000E+00  0.4000E+01
    -56.887  0.0000E+00  0.4000E+01
    -56.618  0.0000E+00  0.4000E+01
    -56.348  0.0000E+00  0.4000E+01
    -56.079  0.0000E+00  0.4000E+01
    -55.809  0.0000E+00  0.4000E+01
    -55.540  0.0000E+00  0.4000E+01
    -55.271  0.0000E+00  0.4000E+01
    -55.001  0.0000E+00  0.4000E+01
    -54.732  0.0000E+00  0.4000E+01
    -54.462  0.0000E+00  0.4000E+01
    -54.193  0.0000E+00  0.4000E+01
    -53.923  0.0000E+00  0.4000E+01
    -53.654  0.0000E+00  0.4000E+01
    -53.385  0.0000E+00  0.4000E+01
    -53.115  0.0000E+00  0.4000E+01
    -52.846  0.0000E+00  0.4000E+01
    -52.576  0.0000E+00  0.4000E+01
    -52.307  0.0000E+00  0.4000E+01
    -52.037  0.0000E+00  0.4000E+01
    -51.768  0.0000E+00  0.4000E+01
    -51.498  0.0000E+00  0.4000E+01
    -51.229  0.0000E+00  0.4000E+01
    -50.960  0.0000E+00  0.4000E+01
    -50.690  0.0000E+00  0.4000E+01
    -50.421  0.0000E+00  0.4000E+01
    -50.151  0.0000E+00  0.4000E+01
    -49.882  0.0000E+00  0.4000E+01
    -49.612  0.0000E+00  0.4000E+01
    -49.343  0.0000E+00  0.4000E+01
    -49.074  0.0000E+00  0.4000E+01
    -48.804  0.0000E+00  0.4000E+01
    -48.535  0.0000E+00  0.4000E+01
    -48.265  0.0000E+00  0.4000E+01
    -47.996  0.0000E+00  0.4000E+01
    -47.726  0.0000E+00  0.4000E+01
    -47.457  0.0000E+00  0.4000E+01
    -47.187  0.0000E+00  0.4000E+01
    -46.918  0.0000E+00  0.4000E+01
    -46.649  0.0000E+00  0.4000E+01
    -46.379  0.0000E+00  0.4000E+01
    -46.110  0.0000E+00  0.4000E+01
    -45.840  0.0000E+00  0.4000E+01
    -45.571  0.0000E+00  0.4000E+01
    -45.301  0.0000E+00  0.4000E+01
    -45.032  0.0000E+00  0.4000E+01
    -44.763  0.0000E+00  0.4000E+01
    -44.493  0.0000E+00  0.4000E+01
    -44.224  0.0000E+00  0.4000E+01
    -43.954  0.0000E+00  0.4000E+01
    -43.685  0.0000E+00  0.4000E+01
    -43.415  0.0000E+00  0.4000E+01
    -43.146  0.0000E+00  0.4000E+01
    -42.876  0.0000E+00  0.4000E+01
    -42.607  0.0000E+00  0.4000E+01
    -42.338  0.0000E+00  0.4000E+01
    -42.068  0.0000E+00  0.4000E+01
    -41.799  0.0000E+00  0.4000E+01
    -41.529  0.0000E+00  0.4000E+01
    -41.260  0.0000E+00  0.4000E+01
    -40.990  0.0000E+00  0.4000E+01
    -40.721  0.0000E+00  0.4000E+01
    -40.452  0.0000E+00  0.4000E+01
    -40.182  0.0000E+00  0.4000E+01
    -39.913  0.0000E+00  0.4000E+01
    -39.643  0.0000E+00  0.4000E+01
    -39.374  0.0000E+00  0.4000E+01
    -39.104  0.0000E+00  0.4000E+01
    -38.835  0.0000E+00  0.4000E+01
    -38.565  0.0000E+00  0.4000E+01
    -38.296  0.0000E+00  0.4000E+01
    -38.027  0.0000E+00  0.4000E+01
    -37.757  0.2864E+02  0.1274E+02
    -37.488  0.0000E+00  0.1600E+02
    -37.218  0.0000E+00  0.1600E+02
    -36.949  0.0000E+00  0.1600E+02
    -36.679  0.0000E+00  0.1600E+02
    -36.410  0.0000E+00  0.1600E+02
    -36.141  0.0000E+00  0.1600E+02
    -35.871  0.0000E+00  0.1600E+02
    -35.602  0.0000E+00  0.1600E+02
    -35.332  0.0000E+00  0.1600E+02
    -35.063  0.0000E+00  0.1600E+02
    -34.793  0.0000E+00  0.1600E+02
    -34.524  0.0000E+00  0.1600E+02
    -34.254  0.0000E+00  0.1600E+02
    -33.985  0.0000E+00  0.1600E+02
    -33.716  0.0000E+00  0.1600E+02
    -33.446  0.0000E+00  0.1600E+02
    -33.177  0.0000E+00  0.1600E+02
    -32.907  0.0000E+00  0.1600E+02
    -32.638  0.0000E+00  0.1600E+02
    -32.368  0.0000E+00  0.1600E+02
    -32.099  0.0000E+00  0.1600E+02
    -31.830  0.0000E+00  0.1600E+02
    -31.560  0.0000E+00  0.1600E+02
    -31.291  0.0000E+00  0.1600E+02
    -31.021  0.0000E+00  0.1600E+02
    -30.752  0.0000E+00  0.1600E+02
    -30.482  0.0000E+00  0.1600E+02
    -30.213  0.0000E+00  0.1600E+02
    -29.943  0.0000E+00  0.1600E+02
    -29.674  0.0000E+00  0.1600E+02
    -29.405  0.0000E+00  0.1600E+02
    -29.135  0.0000E+00  0.1600E+02
    -28.866  0.0000E+00  0.1600E+02
    -28.596  0.0000E+00  0.1600E+02
    -28.327  0.0000E+00  0.1600E+02
    -28.057  0.0000E+00  0.1600E+02
    -27.788  0.0000E+00  0.1600E+02
    -27.519  0.0000E+00  0.1600E+02
    -27.249  0.0000E+00  0.1600E+02
    -26.980  0.0000E+00  0.1600E+02
    -26.710  0.0000E+00  0.1600E+02
    -26.441  0.0000E+00  0.1600E+02
    -26.171  0.0000E+00  0.1600E+02
    -25.902  0.0000E+00  0.1600E+02
    -25.632  0.0000E+00  0.1600E+02
    -25.363  0.0000E+00  0.1600E+02
    -25.094  0.0000E+00  0.1600E+02
    -24.824  0.0000E+00  0.1600E+02
    -24.555  0.0000E+00  0.1600E+02
    -24.285  0.0000E+00  0.1600E+02
    -24.016  0.0000E+00  0.1600E+02
    -23.746  0.0000E+00  0.1600E+02
    -23.477  0.0000E+00  0.1600E+02
    -23.208  0.0000E+00  0.1600E+02
    -22.938  0.0000E+00  0.1600E+02
    -22.669  0.0000E+00  0.1600E+02
    -22.399  0.0000E+00  0.1600E+02
    -22.130  0.0000E+00  0.1600E+02
    -21.860  0.0000E+00  0.1600E+02
    -21.591  0.0000E+00  0.1600E+02
    -21.321  0.0000E+00  0.1600E+02
    -21.052  0.0000E+00  0.1600E+02
    -20.783  0.0000E+00  0.1600E+02
    -20.513  0.0000E+00  0.1600E+02
    -20.244  0.0000E+00  0.1600E+02
    -19.974  0.0000E+00  0.1600E+02
    -19.705  0.0000E+00  0.1600E+02
    -19.435  0.0000E+00  0.1600E+02
    -19.166  0.0000E+00  0.1600E+02
    -18.897  0.0000E+00  0.1600E+02
    -18.627  0.0000E+00  0.1600E+02
    -18.358  0.0000E+00  0.1600E+02
    -18.088  0.0000E+00  0.1600E+02
    -17.819  0.0000E+00  0.1600E+02
    -17.549  0.0000E+00  0.1600E+02
    -17.280  0.0000E+00  0.1600E+02
    -17.010  0.0000E+00  0.1600E+02
    -16.741  0.1060E+01  0.1618E+02
    -16.472  0.1113E+01  0.1647E+02
    -16.202  0.1229E+01  0.1678E+02
    -15.933  0.1392E+01  0.1713E+02
    -15.663  0.2789E+01  0.1762E+02
    -15.394  0.4921E+01  0.1861E+02
    -15.124  0.8111E+01  0.2025E+02
    -14.855  0.1664E+02  0.2300E+02
    -14.586  0.0000E+00  0.2400E+02
    -14.316  0.0000E+00  0.2400E+02
    -14.047  0.0000E+00  0.2400E+02
    -13.777  0.0000E+00  0.2400E+02
    -13.508  0.0000E+00  0.2400E+02
    -13.238  0.0000E+00  0.2400E+02
    -12.969  0.0000E+00  0.2400E+02
    -12.700  0.0000E+00  0.2400E+02
    -12.430  0.0000E+00  0.2400E+02
    -12.161  0.0000E+00  0.2400E+02
    -11.891  0.0000E+00  0.2400E+02
    -11.622  0.0000E+00  0.2400E+02
    -11.352  0.0000E+00  0.2400E+02
    -11.083  0.0000E+00  0.2400E+02
    -10.813  0.0000E+00  0.2400E+02
    -10.544  0.0000E+00  0.2400E+02
    -10.275  0.0000E+00  0.2400E+02
    -10.005  0.0000E+00  0.2400E+02
     -9.736  0.0000E+00  0.2400E+02
     -9.466  0.0000E+00  0.2400E+02
     -9.197  0.0000E+00  0.2400E+02
     -8.927  0.0000E+00  0.2400E+02
     -8.658  0.1024E+01  0.2403E+02
     -8.389  0.2962E+01  0.2460E+02
     -8.119  0.7242E+01  0.2579E+02
     -7.850  0.5211E+01  0.2765E+02
     -7.580  0.3474E+01  0.2933E+02
     -7.311  0.1722E+01  0.2996E+02
     -7.041  0.1546E+01  0.3039E+02
     -6.772  0.4899E+01  0.3166E+02
     -6.502  0.1086E+02  0.3387E+02
     -6.233  0.2898E+01  0.3487E+02
     -5.964  0.7756E+01  0.3654E+02
     -5.694  0.6285E+01  0.3856E+02
     -5.425  0.3256E+01  0.3962E+02
     -5.155  0.4198E+01  0.4059E+02
     -4.886  0.7272E+01  0.4154E+02
     -4.616  0.8671E+01  0.4375E+02
     -4.347  0.4888E+01  0.4536E+02
     -4.078  0.5521E+01  0.4670E+02
     -3.808  0.2380E+01  0.4761E+02
     -3.539  0.6529E+01  0.4932E+02
     -3.269  0.4298E+01  0.5073E+02
     -3.000  0.1598E+01  0.5166E+02
     -2.730  0.3274E+00  0.5188E+02
     -2.461  0.3068E+00  0.5197E+02
     -2.191  0.0000E+00  0.5200E+02
     -1.922  0.0000E+00  0.5200E+02
     -1.653  0.0000E+00  0.5200E+02
     -1.383  0.0000E+00  0.5200E+02
     -1.114  0.5889E+00  0.5202E+02
     -0.844  0.5737E+01  0.5289E+02
     -0.575  0.9942E+01  0.5504E+02
     -0.305  0.1181E+02  0.5724E+02
     -0.036  0.1029E+02  0.5988E+02
      0.233  0.4021E+01  0.6157E+02
      0.503  0.4047E+01  0.6279E+02
      0.772  0.3424E+01  0.6396E+02
      1.042  0.2610E+01  0.6473E+02
      1.311  0.5812E+01  0.6591E+02
      1.581  0.3058E+01  0.6702E+02
      1.850  0.2041E+01  0.6768E+02
      2.120  0.0000E+00  0.6800E+02
      2.389  0.0000E+00  0.6800E+02
      2.658  0.2372E-01  0.6800E+02
      2.928  0.6909E+00  0.6816E+02
      3.197  0.1194E+01  0.6840E+02
      3.467  0.2721E+01  0.6895E+02
      3.736  0.3956E+01  0.6987E+02
      4.006  0.5602E+01  0.7100E+02
      4.275  0.4832E+01  0.7231E+02
      4.544  0.4717E+01  0.7381E+02
      4.814  0.5780E+01  0.7523E+02
      5.083  0.5771E+01  0.7668E+02
      5.353  0.8863E+01  0.7862E+02
      5.622  0.8129E+01  0.8085E+02
      5.892  0.6833E+01  0.8292E+02
      6.161  0.7493E+01  0.8483E+02
      6.431  0.8215E+01  0.8717E+02
      6.700  0.7684E+01  0.9019E+02
      6.969  0.9399E+01  0.9272E+02
      7.239  0.1085E+02  0.9518E+02
      7.508  0.7901E+01  0.9785E+02
      7.778  0.8744E+01  0.1005E+03
      8.047  0.8240E+01  0.1028E+03
      8.317  0.8676E+01  0.1051E+03
      8.586  0.9254E+01  0.1074E+03
      8.855  0.5600E+01  0.1093E+03
      9.125  0.4114E+01  0.1110E+03
      9.394  0.1343E+01  0.1116E+03
      9.664  0.1179E+01  0.1119E+03
      9.933  0.0000E+00  0.1120E+03
     10.203  0.0000E+00  0.1120E+03
     10.472  0.0000E+00  0.1120E+03
     10.742  0.0000E+00  0.1120E+03
     11.011  0.0000E+00  0.1120E+03
     11.280  0.0000E+00  0.1120E+03
     11.550  0.0000E+00  0.1120E+03
     11.819  0.0000E+00  0.1120E+03
     12.089  0.0000E+00  0.1120E+03
     12.358  0.0000E+00  0.1120E+03
     12.628  0.0000E+00  0.1120E+03
     12.897  0.0000E+00  0.1120E+03
     13.166  0.0000E+00  0.1120E+03
     13.436  0.0000E+00  0.1120E+03
