       N       E                     dE             d eps       ncg     rms          rms(c)
DAV:   1     0.252134753025E+03    0.25213E+03   -0.21063E+04  5180   0.529E+02
DAV:   2    -0.272616004405E+02   -0.27940E+03   -0.24998E+03  6244   0.191E+02
DAV:   3    -0.511765961597E+02   -0.23915E+02   -0.23611E+02  5208   0.603E+01
DAV:   4    -0.523880037451E+02   -0.12114E+01   -0.12101E+01  7420   0.137E+01
DAV:   5    -0.523983584580E+02   -0.10355E-01   -0.10352E-01  5040   0.889E-01    0.149E+01
DAV:   6    -0.468643388973E+02    0.55340E+01   -0.31335E+01  6580   0.261E+01    0.815E+00
DAV:   7    -0.453271778843E+02    0.15372E+01   -0.86527E+00  6580   0.131E+01    0.408E+00
DAV:   8    -0.452376633976E+02    0.89514E-01   -0.12087E+00  7028   0.529E+00    0.160E+00
DAV:   9    -0.451583488174E+02    0.79315E-01   -0.25055E-01  7000   0.256E+00    0.266E-01
DAV:  10    -0.451577185129E+02    0.63030E-03   -0.14486E-02  5684   0.431E-01    0.829E-02
DAV:  11    -0.451575358879E+02    0.18263E-03   -0.14247E-03  6160   0.157E-01    0.375E-02
DAV:  12    -0.451574614490E+02    0.74439E-04   -0.19379E-04  6300   0.541E-02    0.238E-02
DAV:  13    -0.451574299303E+02    0.31519E-04   -0.59622E-05  6020   0.250E-02    0.106E-02
DAV:  14    -0.451574513917E+02   -0.21461E-04   -0.11387E-05  6076   0.117E-02    0.608E-03
DAV:  15    -0.451575010966E+02   -0.49705E-04   -0.89717E-06  5096   0.828E-03    0.355E-03
DAV:  16    -0.451575449731E+02   -0.43876E-04   -0.26974E-06  4956   0.399E-03    0.212E-03
DAV:  17    -0.451575856839E+02   -0.40711E-04   -0.18712E-06  4760   0.464E-03    0.142E-03
DAV:  18    -0.451576070175E+02   -0.21334E-04   -0.41294E-07  5516   0.288E-03    0.639E-04
DAV:  19    -0.451576167931E+02   -0.97755E-05   -0.89885E-08  5124   0.939E-04    0.441E-04
DAV:  20    -0.451576242635E+02   -0.74704E-05   -0.18003E-07  4788   0.753E-04    0.182E-04
DAV:  21    -0.451576275692E+02   -0.33058E-05   -0.28964E-08  4928   0.377E-04    0.108E-04
DAV:  22    -0.451576295231E+02   -0.19539E-05   -0.17543E-08  4900   0.304E-04    0.520E-05
DAV:  23    -0.451576302681E+02   -0.74500E-06   -0.48909E-09  4536   0.171E-04    0.284E-05
DAV:  24    -0.451576305501E+02   -0.28198E-06   -0.10714E-09  4284   0.115E-04    0.197E-05
DAV:  25    -0.451576306660E+02   -0.11589E-06   -0.21463E-10  3920   0.746E-05    0.144E-05
DAV:  26    -0.451576307008E+02   -0.34795E-07   -0.15390E-11  4564   0.496E-05    0.119E-05
DAV:  27    -0.451576307662E+02   -0.65401E-07   -0.33634E-11  3388   0.573E-05    0.752E-06
DAV:  28    -0.451576307898E+02   -0.23620E-07   -0.23850E-11  3696   0.422E-05    0.732E-06
DAV:  29    -0.451576307966E+02   -0.68221E-08    0.39941E-12  4144   0.238E-05
   1 F= -.46707895E+02 E0= -.46707895E+02  d E =0.000000E+00
 Linear response reoptimize wavefunctions
DAV:   1    -0.451576307990E+02    0.15503E+01    0.23437E-12  3612   0.209E-05
DAV:   2    -0.451576307990E+02    0.43656E-10   -0.30178E-12  5040   0.929E-06
 Linear response G [H, r] |phi>, progress :
  Direction:   1
       N       E                     dE             d eps       ncg     rms
RMM:   1    -0.201268653050E+03   -0.20127E+03   -0.92877E+01  6891   0.315E+02
RMM:   2    -0.209512324300E+03   -0.82437E+01   -0.12951E+02  8282   0.394E+01
RMM:   3    -0.212599878264E+03   -0.30876E+01   -0.10998E+01  8521   0.112E+01
RMM:   4    -0.212783918210E+03   -0.18404E+00   -0.55757E-01  8732   0.285E+00
RMM:   5    -0.212797511765E+03   -0.13594E-01   -0.70933E-02  9201   0.952E-01
RMM:   6    -0.212799033979E+03   -0.15222E-02   -0.10751E-02  9067   0.327E-01
RMM:   7    -0.212799187471E+03   -0.15349E-03   -0.17079E-03  9358   0.121E-01
RMM:   8    -0.212799207445E+03   -0.19974E-04   -0.28924E-04  9618   0.468E-02
RMM:   9    -0.212799210086E+03   -0.26410E-05   -0.52384E-05  9605   0.188E-02
RMM:  10    -0.212799210622E+03   -0.53585E-06   -0.11665E-05  9994   0.752E-03
RMM:  11    -0.212799210863E+03   -0.24040E-06   -0.64881E-06 10101   0.327E-03
RMM:  12    -0.212799210544E+03    0.31873E-06   -0.19492E-06 10419   0.158E-03
RMM:  13    -0.212799210717E+03   -0.17324E-06   -0.34531E-06 10707   0.959E-04
RMM:  14    -0.212799210599E+03    0.11773E-06   -0.22401E-06 10687   0.755E-04
RMM:  15    -0.212799210638E+03   -0.38651E-07   -0.26198E-06 10622   0.704E-04
RMM:  16    -0.212799210617E+03    0.21166E-07   -0.24081E-06 10507   0.696E-04
 Linear response G [H, r] |phi>, progress :
  Direction:   2
       N       E                     dE             d eps       ncg     rms
RMM:   1    -0.192551445309E+03   -0.19255E+03   -0.56661E+01  7055   0.319E+02
RMM:   2    -0.219531454357E+03   -0.26980E+02   -0.11139E+02  8242   0.402E+01
RMM:   3    -0.222575102254E+03   -0.30436E+01   -0.96542E+00  8474   0.109E+01
RMM:   4    -0.222748111731E+03   -0.17301E+00   -0.51248E-01  8698   0.273E+00
RMM:   5    -0.222760799665E+03   -0.12688E-01   -0.65538E-02  9117   0.914E-01
RMM:   6    -0.222762515455E+03   -0.17158E-02   -0.10693E-02  9125   0.315E-01
RMM:   7    -0.222762646400E+03   -0.13095E-03   -0.13534E-03  9324   0.115E-01
RMM:   8    -0.222762671558E+03   -0.25158E-04   -0.24324E-04  9574   0.435E-02
RMM:   9    -0.222762673961E+03   -0.24030E-05   -0.36798E-05  9642   0.166E-02
RMM:  10    -0.222762674540E+03   -0.57893E-06   -0.72525E-06  9910   0.660E-03
RMM:  11    -0.222762674521E+03    0.18311E-07   -0.11693E-06 10083   0.278E-03
RMM:  12    -0.222762674602E+03   -0.80361E-07   -0.98750E-07 10369   0.131E-03
RMM:  13    -0.222762674489E+03    0.11307E-06    0.31898E-07 10564   0.752E-04
RMM:  14    -0.222762674549E+03   -0.60108E-07   -0.25573E-07 10691   0.572E-04
RMM:  15    -0.222762674495E+03    0.53282E-07    0.28174E-07 10625   0.520E-04
RMM:  16    -0.222762674508E+03   -0.12795E-07    0.15454E-07 10510   0.510E-04
RMM:  17    -0.222762674479E+03    0.29427E-07    0.44903E-07 10452   0.507E-04
 Linear response G [H, r] |phi>, progress :
  Direction:   3
       N       E                     dE             d eps       ncg     rms
RMM:   1    -0.194391921001E+03   -0.19439E+03    0.10520E+02  7661   0.316E+02
RMM:   2    -0.214767866892E+03   -0.20376E+02   -0.10484E+02  8292   0.382E+01
RMM:   3    -0.217304067649E+03   -0.25362E+01   -0.92450E+00  8460   0.111E+01
RMM:   4    -0.217459678244E+03   -0.15561E+00   -0.54455E-01  8922   0.287E+00
RMM:   5    -0.217475273566E+03   -0.15595E-01   -0.78358E-02  9260   0.923E-01
RMM:   6    -0.217476651468E+03   -0.13779E-02   -0.95529E-03  9118   0.299E-01
RMM:   7    -0.217476779630E+03   -0.12816E-03   -0.13476E-03  9065   0.108E-01
RMM:   8    -0.217476802597E+03   -0.22968E-04   -0.20718E-04  9273   0.390E-02
RMM:   9    -0.217476804935E+03   -0.23372E-05   -0.30757E-05  9230   0.148E-02
RMM:  10    -0.217476805397E+03   -0.46198E-06   -0.54526E-06  9568   0.559E-03
RMM:  11    -0.217476805434E+03   -0.37660E-07   -0.88848E-07  9665   0.229E-03
RMM:  12    -0.217476805445E+03   -0.10903E-07   -0.19772E-07  9994   0.103E-03
RMM:  13    -0.217476805435E+03    0.10571E-07    0.39635E-08 10141   0.597E-04
RMM:  14    -0.217476805434E+03    0.10456E-08    0.68835E-08 10197   0.475E-04
 Linear response to external field (no local field effect), progress :
  Direction:   1
       N       E                     dE             d eps       ncg     rms          rms(c)
RMM:   1    -0.363182998931E+01   -0.36318E+01   -0.24084E+01 10455   0.552E+00
RMM:   2    -0.451419352934E+01   -0.88236E+00    0.18431E-01  6698   0.146E+00
RMM:   3    -0.455476727642E+01   -0.40574E-01   -0.30536E-02  8663   0.362E-01
RMM:   4    -0.455563219297E+01   -0.86492E-03   -0.16120E-03  8698   0.983E-02
RMM:   5    -0.455566488458E+01   -0.32692E-04   -0.16447E-04  8964   0.349E-02
RMM:   6    -0.455567098139E+01   -0.60968E-05   -0.23921E-05  9106   0.129E-02
RMM:   7    -0.455567158754E+01   -0.60615E-06   -0.34809E-06  9134   0.485E-03
RMM:   8    -0.455567169277E+01   -0.10523E-06   -0.54522E-07  9005   0.188E-03
RMM:   9    -0.455567170206E+01   -0.92905E-08   -0.82931E-08  8636   0.746E-04
 Linear response to external field (no local field effect), progress :
  Direction:   2
       N       E                     dE             d eps       ncg     rms          rms(c)
RMM:   1    -0.370892357837E+01   -0.37089E+01   -0.24164E+01 10423   0.558E+00
RMM:   2    -0.444621707870E+01   -0.73729E+00    0.26002E-01  6736   0.146E+00
RMM:   3    -0.449189147525E+01   -0.45674E-01   -0.28177E-02  8652   0.366E-01
RMM:   4    -0.449280317803E+01   -0.91170E-03   -0.18200E-03  8684   0.979E-02
RMM:   5    -0.449282980873E+01   -0.26631E-04   -0.14528E-04  8881   0.348E-02
RMM:   6    -0.449283597774E+01   -0.61690E-05   -0.27062E-05  9112   0.128E-02
RMM:   7    -0.449283643825E+01   -0.46051E-06   -0.31915E-06  9012   0.476E-03
RMM:   8    -0.449283654498E+01   -0.10672E-06   -0.66236E-07  9126   0.186E-03
RMM:   9    -0.449283654776E+01   -0.27798E-08   -0.78774E-08  8670   0.742E-04
 Linear response to external field (no local field effect), progress :
  Direction:   3
       N       E                     dE             d eps       ncg     rms          rms(c)
RMM:   1    -0.216228680341E+01   -0.21623E+01   -0.11188E+01 10535   0.506E+00
RMM:   2    -0.240853572992E+01   -0.24625E+00    0.72105E-02  6513   0.120E+00
RMM:   3    -0.242583593935E+01   -0.17300E-01   -0.14494E-02  8661   0.301E-01
RMM:   4    -0.242632013124E+01   -0.48419E-03   -0.12299E-03  8748   0.840E-02
RMM:   5    -0.242633163225E+01   -0.11501E-04   -0.10997E-04  9125   0.305E-02
RMM:   6    -0.242633557252E+01   -0.39403E-05   -0.24568E-05  9020   0.115E-02
RMM:   7    -0.242633562547E+01   -0.52945E-07   -0.32799E-06  9058   0.446E-03
RMM:   8    -0.242633570233E+01   -0.76863E-07   -0.72489E-07  8717   0.181E-03
RMM:   9    -0.242633570322E+01   -0.88437E-09   -0.99570E-08  8552   0.732E-04
 Linear response to external field, progress :
  Direction:   1
       N       E                     dE             d eps       ncg     rms          rms(c)
RMM:   1    -0.368329252914E+01   -0.36833E+01   -0.24253E+01 25598   0.552E+00
RMM:   2    -0.448018365632E+01   -0.79689E+00    0.22189E-01 16722   0.143E+00    0.457E+00
RMM:   3    -0.433700777360E+01    0.14318E+00   -0.11345E-01 18757   0.158E+00    0.239E+00
RMM:   4    -0.444022180216E+01   -0.10321E+00   -0.82337E-02 19495   0.147E+00    0.417E-01
RMM:   5    -0.447935819865E+01   -0.39136E-01   -0.10135E-02 19834   0.406E-01    0.720E-02
RMM:   6    -0.448359264385E+01   -0.42344E-02   -0.45211E-03 20693   0.941E-02    0.321E-02
RMM:   7    -0.448409960805E+01   -0.50696E-03    0.21403E-04 21103   0.336E-02    0.939E-03
RMM:   8    -0.448467557784E+01   -0.57597E-03   -0.39098E-03 21998   0.105E-02    0.518E-03
RMM:   9    -0.448441969552E+01    0.25588E-03    0.65932E-04 21351   0.474E-03    0.193E-03
RMM:  10    -0.448454849726E+01   -0.12880E-03    0.44836E-04 22186   0.173E-03    0.468E-04
RMM:  11    -0.448461709505E+01   -0.68598E-04   -0.45554E-05 21869   0.608E-04    0.227E-04
RMM:  12    -0.448461976396E+01   -0.26689E-05   -0.77119E-06 22102   0.220E-04    0.809E-05
RMM:  13    -0.448461830461E+01    0.14593E-05    0.38475E-07 21570   0.108E-04    0.301E-05
RMM:  14    -0.448461955209E+01   -0.12475E-05   -0.19815E-06 19604   0.388E-05    0.867E-06
 Linear response to external field, progress :
  Direction:   2
       N       E                     dE             d eps       ncg     rms          rms(c)
RMM:   1    -0.368910237769E+01   -0.36891E+01   -0.24311E+01 25709   0.552E+00
RMM:   2    -0.448198778126E+01   -0.79289E+00    0.20390E-01 16504   0.143E+00    0.457E+00
RMM:   3    -0.433713656864E+01    0.14485E+00   -0.11276E-01 19089   0.158E+00    0.239E+00
RMM:   4    -0.443758586278E+01   -0.10045E+00   -0.55325E-02 19668   0.147E+00    0.417E-01
RMM:   5    -0.447880260628E+01   -0.41217E-01   -0.63689E-03 20042   0.406E-01    0.743E-02
RMM:   6    -0.448783740416E+01   -0.90348E-02   -0.48532E-02 20849   0.936E-02    0.349E-02
RMM:   7    -0.448283694795E+01    0.50005E-02    0.11408E-02 21094   0.369E-02    0.181E-02
RMM:   8    -0.448492432298E+01   -0.20874E-02   -0.67072E-03 20635   0.143E-02    0.530E-03
RMM:   9    -0.448457813508E+01    0.34619E-03   -0.91099E-04 21805   0.543E-03    0.197E-03
RMM:  10    -0.448460069811E+01   -0.22563E-04   -0.12095E-04 22345   0.182E-03    0.518E-04
RMM:  11    -0.448459631997E+01    0.43781E-05    0.99778E-05 22552   0.597E-04    0.352E-04
RMM:  12    -0.448463556929E+01   -0.39249E-04   -0.19891E-04 21000   0.294E-04    0.106E-04
RMM:  13    -0.448461871289E+01    0.16856E-04   -0.46336E-06 22843   0.116E-04    0.400E-05
RMM:  14    -0.448461925679E+01   -0.54390E-06   -0.21385E-06 20211   0.488E-05    0.128E-05
RMM:  15    -0.448461932951E+01   -0.72717E-07   -0.11402E-06 16503   0.240E-05    0.591E-06
 Linear response to external field, progress :
  Direction:   3
       N       E                     dE             d eps       ncg     rms          rms(c)
RMM:   1    -0.216228680341E+01   -0.21623E+01   -0.11188E+01 10535   0.506E+00
RMM:   2    -0.240853572992E+01   -0.24625E+00    0.72105E-02  6513   0.120E+00    0.385E+00
RMM:   3     0.968233100779E+00    0.33768E+01    0.15135E+01  7899   0.261E+00    0.259E+00
RMM:   4    -0.362074593478E+00   -0.13303E+01    0.31233E-01  7347   0.975E-01    0.748E-01
RMM:   5     0.601927882760E-01    0.42227E+00    0.39906E+00  7211   0.561E-01    0.330E-01
RMM:   6    -0.284433597634E+00   -0.34463E+00    0.47449E-01  7505   0.230E-01    0.204E-01
RMM:   7    -0.274590347918E+00    0.98432E-02    0.48990E-01  7078   0.113E-01    0.101E-01
RMM:   8    -0.264916921537E+00    0.96734E-02    0.56113E-01  7117   0.793E-02    0.420E-02
RMM:   9    -0.328939626336E+00   -0.64023E-01   -0.87710E-02  7022   0.403E-02    0.164E-02
RMM:  10    -0.320356411097E+00    0.85832E-02   -0.22238E-03  7620   0.143E-02    0.117E-02
RMM:  11    -0.323653110326E+00   -0.32967E-02   -0.33419E-02  6626   0.184E-02    0.581E-03
RMM:  12    -0.320682673245E+00    0.29704E-02   -0.16421E-03  6991   0.108E-02    0.381E-03
RMM:  13    -0.322119398154E+00   -0.14367E-02   -0.14748E-02  7110   0.636E-03    0.162E-03
RMM:  14    -0.320531303177E+00    0.15881E-02    0.12980E-03  7299   0.355E-03    0.102E-03
RMM:  15    -0.320616612232E+00   -0.85309E-04    0.46094E-04  7279   0.279E-03    0.518E-04
RMM:  16    -0.320731274098E+00   -0.11466E-03   -0.74178E-04  7415   0.168E-03    0.278E-04
RMM:  17    -0.320630540206E+00    0.10073E-03    0.23222E-04  7972   0.710E-04    0.200E-04
RMM:  18    -0.320655001469E+00   -0.24461E-04   -0.56675E-05  7513   0.105E-03    0.110E-04
RMM:  19    -0.320656617989E+00   -0.16165E-05   -0.83426E-05  7855   0.381E-04    0.796E-05
RMM:  20    -0.320646455006E+00    0.10163E-04    0.45058E-06  7555   0.556E-04    0.380E-05
RMM:  21    -0.320648116290E+00   -0.16613E-05   -0.12361E-05  7642   0.130E-04    0.246E-05
RMM:  22    -0.320649317008E+00   -0.12007E-05   -0.22360E-05  7078   0.143E-04    0.114E-05
RMM:  23    -0.320647210705E+00    0.21063E-05   -0.43494E-07  7188   0.555E-05    0.598E-06
