 vasp.5.4.1 24Jun15 (build Apr 13 2016 13:07:19) complex                        
  
 executed on           IFC91_ompi date 2019.09.13  17:47:59
 running on   28 total cores
 distrk:  each k-point on   28 cores,    1 groups
 distr:  one band on NCORES_PER_BAND=   1 cores,   28 groups


--------------------------------------------------------------------------------------------------------


 INCAR:
 POTCAR:    PAW_PBE Mo_sv_GW 05Dec2013            
 POTCAR:    PAW_PBE S_GW 19Mar2012                

 ----------------------------------------------------------------------------- 
|                                                                             |
|           W    W    AA    RRRRR   N    N  II  N    N   GGGG   !!!           |
|           W    W   A  A   R    R  NN   N  II  NN   N  G    G  !!!           |
|           W    W  A    A  R    R  N N  N  II  N N  N  G       !!!           |
|           W WW W  AAAAAA  RRRRR   N  N N  II  N  N N  G  GGG   !            |
|           WW  WW  A    A  R   R   N   NN  II  N   NN  G    G                |
|           W    W  A    A  R    R  N    N  II  N    N   GGGG   !!!           |
|                                                                             |
|      For optimal performance we recommend to set                            |
|        NCORE= 4 - approx SQRT( number of cores)                             |
|      NCORE specifies how many cores store one orbital (NPAR=cpu/NCORE).     |
|      This setting can  greatly improve the performance of VASP for DFT.     |
|      The default, NPAR=number of cores might be grossly inefficient         |
|      on modern multi-core architectures or massively parallel machines.     |
|      Do your own testing !!!!                                               |
|      Unfortunately you need to use the default for GW and RPA calculations. |
|      (for HF NCORE is supported but not extensively tested yet)             |
|                                                                             |
 ----------------------------------------------------------------------------- 

 POTCAR:    PAW_PBE Mo_sv_GW 05Dec2013            
   VRHFIN =Mo: 4s4p5s4d                                                         
   LEXCH  = PE                                                                  
   EATOM  =  1861.5185 eV,  136.8178 Ry                                         
                                                                                
   TITEL  = PAW_PBE Mo_sv_GW 05Dec2013                                          
   LULTRA =        F    use ultrasoft PP ?                                      
   IUNSCR =        1    unscreen: 0-lin 1-nonlin 2-no                           
   RPACOR =    2.000    partial core radius                                     
   POMASS =   95.940; ZVAL   =   14.000    mass and valenz                      
   RCORE  =    2.100    outmost cutoff radius                                   
   RWIGS  =    2.100; RWIGS  =    1.111    wigner-seitz radius (au A)           
   ENMAX  =  344.914; ENMIN  =  258.686 eV                                      
   RCLOC  =    1.508    cutoff for local pot                                    
   LCOR   =        T    correct aug charges                                     
   LPAW   =        T    paw PP                                                  
   EAUG   =  964.741                                                            
   DEXC   =    0.000                                                            
   RMAX   =    2.149    core radius for proj-oper                               
   RAUG   =    1.300    factor for augmentation sphere                          
   RDEP   =    2.179    radius for radial grids                                 
   RDEPT  =    1.677    core radius for aug-charge                              
                                                                                
   Atomic configuration                                                         
   12 entries                                                                   
     n  l   j            E        occ.                                          
     1  0  0.50    -19816.9363   2.0000                                         
     2  0  0.50     -2796.7578   2.0000                                         
     2  1  1.50     -2499.7842   6.0000                                         
     3  0  0.50      -474.2095   2.0000                                         
     3  1  1.50      -376.9135   6.0000                                         
     3  2  2.50      -218.6898  10.0000                                         
     4  0  0.50       -62.1983   2.0000                                         
     4  0  0.50       -66.6685   0.0000                                         
     4  1  1.50       -36.4414   6.0000                                         
     4  1  1.50       -40.8175   0.0000                                         
     4  2  2.50        -2.3086   6.0000                                         
     4  3  2.50        -1.3606   0.0000                                         
   Description                                                                  
     l       E           TYP  RCUT    TYP  RCUT                                 
     0    -62.1983072     23  1.950                                             
     0     27.2116520     23  1.950                                             
     0    149.6640860     23  1.950                                             
     1    -36.4413666     23  1.800                                             
     1    -40.8174780     23  1.800                                             
     1     54.4233040     23  1.800                                             
     2     -2.3085597     23  2.000                                             
     2     -6.8029130     23  2.000                                             
     2    136.0582600     23  2.000                                             
     3     13.6058260     23  2.100                                             
     3     81.6349560     23  2.100                                             
  local pseudopotential read in
  partial core-charges read in
  partial kinetic energy density read in
  kinetic energy density of atom read in
  atomic valenz-charges read in
  non local Contribution for L=           0  read in
    real space projection operators read in
  non local Contribution for L=           0  read in
    real space projection operators read in
  non local Contribution for L=           0  read in
    real space projection operators read in
  non local Contribution for L=           1  read in
    real space projection operators read in
  non local Contribution for L=           1  read in
    real space projection operators read in
  non local Contribution for L=           1  read in
    real space projection operators read in
  non local Contribution for L=           2  read in
    real space projection operators read in
  non local Contribution for L=           2  read in
    real space projection operators read in
  non local Contribution for L=           2  read in
    real space projection operators read in
  non local Contribution for L=           3  read in
    real space projection operators read in
  non local Contribution for L=           3  read in
    real space projection operators read in
    PAW grid and wavefunctions read in
 
   number of l-projection  operators is LMAX  =          11
   number of lm-projection operators is LMMAX =          41
 
 POTCAR:    PAW_PBE S_GW 19Mar2012                
   VRHFIN =S : s2p4                                                             
   LEXCH  = PE                                                                  
   EATOM  =   276.8230 eV,   20.3459 Ry                                         
                                                                                
   TITEL  = PAW_PBE S_GW 19Mar2012                                              
   LULTRA =        F    use ultrasoft PP ?                                      
   IUNSCR =        1    unscreen: 0-lin 1-nonlin 2-no                           
   RPACOR =    1.400    partial core radius                                     
   POMASS =   32.066; ZVAL   =    6.000    mass and valenz                      
   RCORE  =    1.900    outmost cutoff radius                                   
   RWIGS  =    1.900; RWIGS  =    1.005    wigner-seitz radius (au A)           
   ENMAX  =  258.689; ENMIN  =  194.016 eV                                      
   ICORE  =        3    local potential                                         
   LCOR   =        T    correct aug charges                                     
   LPAW   =        T    paw PP                                                  
   EAUG   =  488.319                                                            
   DEXC   =    0.000                                                            
   RMAX   =    1.942    core radius for proj-oper                               
   RAUG   =    1.300    factor for augmentation sphere                          
   RDEP   =    1.954    radius for radial grids                                 
   RDEPT  =    1.900    core radius for aug-charge                              
                                                                                
   Atomic configuration                                                         
    7 entries                                                                   
     n  l   j            E        occ.                                          
     1  0  0.50     -2405.8406   2.0000                                         
     2  0  0.50      -211.7007   2.0000                                         
     2  1  1.50      -156.4958   6.0000                                         
     3  0  0.50       -17.2562   2.0000                                         
     3  1  0.50        -7.0085   4.0000                                         
     3  2  1.50        -8.1635   0.0000                                         
     4  3  2.50        -1.3606   0.0000                                         
   Description                                                                  
     l       E           TYP  RCUT    TYP  RCUT                                 
     0    -17.2561639     23  1.700                                             
     0     88.4378690     23  1.900                                             
     1     -7.0085399     23  1.900                                             
     1     88.4378690     23  1.900                                             
     2    -10.8846608     23  1.900                                             
     2     54.4233040     23  1.900                                             
     3     27.2116520     23  1.800                                             
  local pseudopotential read in
  partial core-charges read in
  partial kinetic energy density read in
  kinetic energy density of atom read in
  atomic valenz-charges read in
  non local Contribution for L=           0  read in
    real space projection operators read in
  non local Contribution for L=           0  read in
    real space projection operators read in
  non local Contribution for L=           1  read in
    real space projection operators read in
  non local Contribution for L=           1  read in
    real space projection operators read in
  non local Contribution for L=           2  read in
    real space projection operators read in
  non local Contribution for L=           2  read in
    real space projection operators read in
    PAW grid and wavefunctions read in
 
   number of l-projection  operators is LMAX  =           6
   number of lm-projection operators is LMMAX =          18
 
  PAW_PBE Mo_sv_GW 05Dec2013            :
 energy of atom  1       EATOM=-1861.5185
 kinetic energy error for atom=    0.1105 (will be added to EATOM!!)
  PAW_PBE S_GW 19Mar2012                :
 energy of atom  2       EATOM= -276.8230
 kinetic energy error for atom=    0.0058 (will be added to EATOM!!)
 
 
 POSCAR: Mo  S                                   
  positions in cartesian coordinates
  No initial velocities read in
 exchange correlation table for  LEXCH =        8
   RHO(1)=    0.500       N(1)  =     2000
   RHO(2)=  100.500       N(2)  =     4000
 


--------------------------------------------------------------------------------------------------------


 ion  position               nearest neighbor table
   1  0.167  0.333  0.438-   3 2.41   4 2.41   3 2.41   4 2.41   3 2.41   4 2.41
   2  0.833  0.667  0.562-   5 2.41   6 2.41   5 2.41   6 2.41   5 2.41   6 2.41
   3  0.833  0.667  0.470-   1 2.41   1 2.41   1 2.41
   4  0.833  0.667  0.407-   1 2.41   1 2.41   1 2.41
   5  0.167  0.333  0.593-   2 2.41   2 2.41   2 2.41
   6  0.167  0.333  0.530-   2 2.41   2 2.41   2 2.41
 
  LATTYP: Found a hexagonal cell.
 ALAT       =     3.1840664647
 C/A-ratio  =    15.7031897903
  
  Lattice vectors:
  
 A1 = (   3.1840664647,   0.0000000000,   0.0000000000)
 A2 = (  -1.5920332323,   2.7574824458,   0.0000000000)
 A3 = (   0.0000000000,   0.0000000000,  50.0000000000)


Analysis of symmetry for initial positions (statically):
=====================================================================
 Subroutine PRICEL returns:
 Original cell was already a primitive cell.
 

 Routine SETGRP: Setting up the symmetry group for a 
 hexagonal supercell.


 Subroutine GETGRP returns: Found 12 space group operations
 (whereof  4 operations were pure point group operations)
 out of a pool of 24 trial point group operations.


The static configuration has the point symmetry C_2h.
 The point group associated with its full space group is D_3d.


Analysis of symmetry for dynamics (positions and initial velocities):
=====================================================================
 Subroutine PRICEL returns:
 Original cell was already a primitive cell.
 

 Routine SETGRP: Setting up the symmetry group for a 
 hexagonal supercell.


 Subroutine GETGRP returns: Found 12 space group operations
 (whereof  4 operations were pure point group operations)
 out of a pool of 24 trial point group operations.


The dynamic configuration has the point symmetry C_2h.
 The point group associated with its full space group is D_3d.


 Subroutine INISYM returns: Found 12 space group operations
 (whereof  4 operations are pure point group operations),
 and found     1 'primitive' translations

 
 
 KPOINTS: KPOINTS created by Atomic Simulation Env

Automatic generation of k-mesh.
Space group operators:
 irot       det(A)        alpha          n_x          n_y          n_z        tau_x        tau_y        tau_z
    1     1.000000     0.000000     1.000000     0.000000     0.000000     0.000000     0.000000     0.000000
    2    -1.000000     0.000000     1.000000     0.000000     0.000000     0.000000     0.000000     0.000000
    3     1.000000   180.000000     1.000000     0.000000     0.000000     0.000000     0.000000     0.000000
    4    -1.000000   180.000000     1.000000     0.000000     0.000000     0.000000     0.000000     0.000000
    5     1.000000   120.000000     0.000000     0.000000    -1.000000     0.500000     0.500000     0.000000
    6    -1.000000   120.000000     0.000000     0.000000    -1.000000     0.500000     0.500000     0.000000
    7     1.000000   120.000000     0.000000     0.000000     1.000000     0.000000     0.500000     0.000000
    8    -1.000000   120.000000     0.000000     0.000000     1.000000     0.000000     0.500000     0.000000
    9     1.000000   180.000000     0.500000    -0.866025     0.000000     0.000000     0.500000     0.000000
   10    -1.000000   180.000000     0.500000    -0.866025     0.000000     0.000000     0.500000     0.000000
   11     1.000000   180.000000    -0.500000    -0.866025     0.000000     0.500000     0.500000     0.000000
   12    -1.000000   180.000000    -0.500000    -0.866025     0.000000     0.500000     0.500000     0.000000
 
 Subroutine IBZKPT returns following result:
 ===========================================
 
 Found     37 irreducible k-points:
 
 Following reciprocal coordinates:
            Coordinates               Weight
  0.000000  0.000000  0.000000      1.000000
  0.055556  0.000000  0.000000      6.000000
  0.111111  0.000000  0.000000      6.000000
  0.166667  0.000000  0.000000      6.000000
  0.222222  0.000000  0.000000      6.000000
  0.277778  0.000000  0.000000      6.000000
  0.333333  0.000000  0.000000      6.000000
  0.388889  0.000000  0.000000      6.000000
  0.444444  0.000000  0.000000      6.000000
  0.500000  0.000000  0.000000      3.000000
  0.055556  0.055556  0.000000      6.000000
  0.111111  0.055556  0.000000     12.000000
  0.166667  0.055556  0.000000     12.000000
  0.222222  0.055556  0.000000     12.000000
  0.277778  0.055556  0.000000     12.000000
  0.333333  0.055556  0.000000     12.000000
  0.388889  0.055556  0.000000     12.000000
  0.444444  0.055556  0.000000     12.000000
  0.111111  0.111111  0.000000      6.000000
  0.166667  0.111111  0.000000     12.000000
  0.222222  0.111111  0.000000     12.000000
  0.277778  0.111111  0.000000     12.000000
  0.333333  0.111111  0.000000     12.000000
  0.388889  0.111111  0.000000     12.000000
  0.444444  0.111111  0.000000      6.000000
  0.166667  0.166667  0.000000      6.000000
  0.222222  0.166667  0.000000     12.000000
  0.277778  0.166667  0.000000     12.000000
  0.333333  0.166667  0.000000     12.000000
  0.388889  0.166667  0.000000     12.000000
  0.222222  0.222222  0.000000      6.000000
  0.277778  0.222222  0.000000     12.000000
  0.333333  0.222222  0.000000     12.000000
  0.388889  0.222222  0.000000      6.000000
  0.277778  0.277778  0.000000      6.000000
  0.333333  0.277778  0.000000     12.000000
  0.333333  0.333333  0.000000      2.000000
 
 Following cartesian coordinates:
            Coordinates               Weight
  0.000000  0.000000  0.000000      1.000000
  0.017448  0.010074  0.000000      6.000000
  0.034896  0.020147  0.000000      6.000000
  0.052344  0.030221  0.000000      6.000000
  0.069792  0.040294  0.000000      6.000000
  0.087240  0.050368  0.000000      6.000000
  0.104688  0.060442  0.000000      6.000000
  0.122136  0.070515  0.000000      6.000000
  0.139584  0.080589  0.000000      6.000000
  0.157032  0.090662  0.000000      3.000000
  0.017448  0.030221  0.000000      6.000000
  0.034896  0.040294  0.000000     12.000000
  0.052344  0.050368  0.000000     12.000000
  0.069792  0.060442  0.000000     12.000000
  0.087240  0.070515  0.000000     12.000000
  0.104688  0.080589  0.000000     12.000000
  0.122136  0.090662  0.000000     12.000000
  0.139584  0.100736  0.000000     12.000000
  0.034896  0.060442  0.000000      6.000000
  0.052344  0.070515  0.000000     12.000000
  0.069792  0.080589  0.000000     12.000000
  0.087240  0.090662  0.000000     12.000000
  0.104688  0.100736  0.000000     12.000000
  0.122136  0.110810  0.000000     12.000000
  0.139584  0.120883  0.000000      6.000000
  0.052344  0.090662  0.000000      6.000000
  0.069792  0.100736  0.000000     12.000000
  0.087240  0.110810  0.000000     12.000000
  0.104688  0.120883  0.000000     12.000000
  0.122136  0.130957  0.000000     12.000000
  0.069792  0.120883  0.000000      6.000000
  0.087240  0.130957  0.000000     12.000000
  0.104688  0.141030  0.000000     12.000000
  0.122136  0.151104  0.000000      6.000000
  0.087240  0.151104  0.000000      6.000000
  0.104688  0.161178  0.000000     12.000000
  0.104688  0.181325  0.000000      2.000000
 
 TETIRR: Found    169 inequivalent tetrahedra from     1944
 
 Subroutine IBZKPT_HF returns following result:
 ==============================================
 
 Found    324 k-points in 1st BZ
 the following    324 k-points will be used (e.g. in the exchange kernel)
 Following reciprocal coordinates:   # in IRBZ
  0.000000  0.000000  0.000000    0.00308642   1 t-inv F
  0.055556  0.000000  0.000000    0.00308642   2 t-inv F
  0.111111  0.000000  0.000000    0.00308642   3 t-inv F
  0.166667  0.000000  0.000000    0.00308642   4 t-inv F
  0.222222  0.000000  0.000000    0.00308642   5 t-inv F
  0.277778  0.000000  0.000000    0.00308642   6 t-inv F
  0.333333  0.000000  0.000000    0.00308642   7 t-inv F
  0.388889  0.000000  0.000000    0.00308642   8 t-inv F
  0.444444  0.000000  0.000000    0.00308642   9 t-inv F
  0.500000  0.000000  0.000000    0.00308642  10 t-inv F
  0.055556  0.055556  0.000000    0.00308642  11 t-inv F
  0.111111  0.055556  0.000000    0.00308642  12 t-inv F
  0.166667  0.055556  0.000000    0.00308642  13 t-inv F
  0.222222  0.055556  0.000000    0.00308642  14 t-inv F
  0.277778  0.055556  0.000000    0.00308642  15 t-inv F
  0.333333  0.055556  0.000000    0.00308642  16 t-inv F
  0.388889  0.055556  0.000000    0.00308642  17 t-inv F
  0.444444  0.055556  0.000000    0.00308642  18 t-inv F
  0.111111  0.111111  0.000000    0.00308642  19 t-inv F
  0.166667  0.111111  0.000000    0.00308642  20 t-inv F
  0.222222  0.111111  0.000000    0.00308642  21 t-inv F
  0.277778  0.111111  0.000000    0.00308642  22 t-inv F
  0.333333  0.111111  0.000000    0.00308642  23 t-inv F
  0.388889  0.111111  0.000000    0.00308642  24 t-inv F
  0.444444  0.111111  0.000000    0.00308642  25 t-inv F
  0.166667  0.166667  0.000000    0.00308642  26 t-inv F
  0.222222  0.166667  0.000000    0.00308642  27 t-inv F
  0.277778  0.166667  0.000000    0.00308642  28 t-inv F
  0.333333  0.166667  0.000000    0.00308642  29 t-inv F
  0.388889  0.166667  0.000000    0.00308642  30 t-inv F
  0.222222  0.222222  0.000000    0.00308642  31 t-inv F
  0.277778  0.222222  0.000000    0.00308642  32 t-inv F
  0.333333  0.222222  0.000000    0.00308642  33 t-inv F
  0.388889  0.222222  0.000000    0.00308642  34 t-inv F
  0.277778  0.277778  0.000000    0.00308642  35 t-inv F
  0.333333  0.277778  0.000000    0.00308642  36 t-inv F
  0.333333  0.333333  0.000000    0.00308642  37 t-inv F
 -0.055556 -0.000000 -0.000000    0.00308642   2 t-inv F
  0.055556 -0.055556 -0.000000    0.00308642   2 t-inv F
 -0.055556  0.055556  0.000000    0.00308642   2 t-inv F
  0.000000 -0.055556  0.000000    0.00308642   2 t-inv F
 -0.000000  0.055556 -0.000000    0.00308642   2 t-inv F
 -0.111111 -0.000000 -0.000000    0.00308642   3 t-inv F
  0.111111 -0.111111 -0.000000    0.00308642   3 t-inv F
 -0.111111  0.111111  0.000000    0.00308642   3 t-inv F
  0.000000 -0.111111  0.000000    0.00308642   3 t-inv F
 -0.000000  0.111111 -0.000000    0.00308642   3 t-inv F
 -0.166667 -0.000000 -0.000000    0.00308642   4 t-inv F
  0.166667 -0.166667 -0.000000    0.00308642   4 t-inv F
 -0.166667  0.166667  0.000000    0.00308642   4 t-inv F
  0.000000 -0.166667  0.000000    0.00308642   4 t-inv F
 -0.000000  0.166667 -0.000000    0.00308642   4 t-inv F
 -0.222222 -0.000000 -0.000000    0.00308642   5 t-inv F
  0.222222 -0.222222 -0.000000    0.00308642   5 t-inv F
 -0.222222  0.222222  0.000000    0.00308642   5 t-inv F
  0.000000 -0.222222  0.000000    0.00308642   5 t-inv F
 -0.000000  0.222222 -0.000000    0.00308642   5 t-inv F
 -0.277778 -0.000000 -0.000000    0.00308642   6 t-inv F
  0.277778 -0.277778 -0.000000    0.00308642   6 t-inv F
 -0.277778  0.277778  0.000000    0.00308642   6 t-inv F
  0.000000 -0.277778  0.000000    0.00308642   6 t-inv F
 -0.000000  0.277778 -0.000000    0.00308642   6 t-inv F
 -0.333333 -0.000000 -0.000000    0.00308642   7 t-inv F
  0.333333 -0.333333 -0.000000    0.00308642   7 t-inv F
 -0.333333  0.333333  0.000000    0.00308642   7 t-inv F
  0.000000 -0.333333  0.000000    0.00308642   7 t-inv F
 -0.000000  0.333333 -0.000000    0.00308642   7 t-inv F
 -0.388889 -0.000000 -0.000000    0.00308642   8 t-inv F
  0.388889 -0.388889 -0.000000    0.00308642   8 t-inv F
 -0.388889  0.388889  0.000000    0.00308642   8 t-inv F
  0.000000 -0.388889  0.000000    0.00308642   8 t-inv F
 -0.000000  0.388889 -0.000000    0.00308642   8 t-inv F
 -0.444444 -0.000000 -0.000000    0.00308642   9 t-inv F
  0.444444 -0.444444 -0.000000    0.00308642   9 t-inv F
 -0.444444  0.444444  0.000000    0.00308642   9 t-inv F
  0.000000 -0.444444  0.000000    0.00308642   9 t-inv F
 -0.000000  0.444444 -0.000000    0.00308642   9 t-inv F
  0.500000 -0.500000 -0.000000    0.00308642  10 t-inv F
  0.000000 -0.500000  0.000000    0.00308642  10 t-inv F
 -0.055556 -0.055556 -0.000000    0.00308642  11 t-inv F
  0.055556 -0.111111 -0.000000    0.00308642  11 t-inv F
 -0.055556  0.111111  0.000000    0.00308642  11 t-inv F
 -0.111111  0.055556  0.000000    0.00308642  11 t-inv F
  0.111111 -0.055556 -0.000000    0.00308642  11 t-inv F
 -0.111111 -0.055556 -0.000000    0.00308642  12 t-inv F
  0.111111 -0.166667 -0.000000    0.00308642  12 t-inv F
 -0.111111  0.166667  0.000000    0.00308642  12 t-inv F
 -0.166667  0.111111  0.000000    0.00308642  12 t-inv F
  0.166667 -0.111111 -0.000000    0.00308642  12 t-inv F
  0.055556 -0.166667  0.000000    0.00308642  12 t-inv F
 -0.055556  0.166667 -0.000000    0.00308642  12 t-inv F
 -0.166667  0.055556 -0.000000    0.00308642  12 t-inv F
  0.166667 -0.055556  0.000000    0.00308642  12 t-inv F
  0.055556  0.111111 -0.000000    0.00308642  12 t-inv F
 -0.055556 -0.111111  0.000000    0.00308642  12 t-inv F
 -0.166667 -0.055556 -0.000000    0.00308642  13 t-inv F
  0.166667 -0.222222 -0.000000    0.00308642  13 t-inv F
 -0.166667  0.222222  0.000000    0.00308642  13 t-inv F
 -0.222222  0.166667  0.000000    0.00308642  13 t-inv F
  0.222222 -0.166667 -0.000000    0.00308642  13 t-inv F
  0.055556 -0.222222  0.000000    0.00308642  13 t-inv F
 -0.055556  0.222222 -0.000000    0.00308642  13 t-inv F
 -0.222222  0.055556 -0.000000    0.00308642  13 t-inv F
  0.222222 -0.055556  0.000000    0.00308642  13 t-inv F
  0.055556  0.166667 -0.000000    0.00308642  13 t-inv F
 -0.055556 -0.166667  0.000000    0.00308642  13 t-inv F
 -0.222222 -0.055556 -0.000000    0.00308642  14 t-inv F
  0.222222 -0.277778 -0.000000    0.00308642  14 t-inv F
 -0.222222  0.277778  0.000000    0.00308642  14 t-inv F
 -0.277778  0.222222  0.000000    0.00308642  14 t-inv F
  0.277778 -0.222222 -0.000000    0.00308642  14 t-inv F
  0.055556 -0.277778  0.000000    0.00308642  14 t-inv F
 -0.055556  0.277778 -0.000000    0.00308642  14 t-inv F
 -0.277778  0.055556 -0.000000    0.00308642  14 t-inv F
  0.277778 -0.055556  0.000000    0.00308642  14 t-inv F
  0.055556  0.222222 -0.000000    0.00308642  14 t-inv F
 -0.055556 -0.222222  0.000000    0.00308642  14 t-inv F
 -0.277778 -0.055556 -0.000000    0.00308642  15 t-inv F
  0.277778 -0.333333 -0.000000    0.00308642  15 t-inv F
 -0.277778  0.333333  0.000000    0.00308642  15 t-inv F
 -0.333333  0.277778  0.000000    0.00308642  15 t-inv F
  0.333333 -0.277778 -0.000000    0.00308642  15 t-inv F
  0.055556 -0.333333  0.000000    0.00308642  15 t-inv F
 -0.055556  0.333333 -0.000000    0.00308642  15 t-inv F
 -0.333333  0.055556 -0.000000    0.00308642  15 t-inv F
  0.333333 -0.055556  0.000000    0.00308642  15 t-inv F
  0.055556  0.277778 -0.000000    0.00308642  15 t-inv F
 -0.055556 -0.277778  0.000000    0.00308642  15 t-inv F
 -0.333333 -0.055556 -0.000000    0.00308642  16 t-inv F
  0.333333 -0.388889 -0.000000    0.00308642  16 t-inv F
 -0.333333  0.388889  0.000000    0.00308642  16 t-inv F
 -0.388889  0.333333  0.000000    0.00308642  16 t-inv F
  0.388889 -0.333333 -0.000000    0.00308642  16 t-inv F
  0.055556 -0.388889  0.000000    0.00308642  16 t-inv F
 -0.055556  0.388889 -0.000000    0.00308642  16 t-inv F
 -0.388889  0.055556 -0.000000    0.00308642  16 t-inv F
  0.388889 -0.055556  0.000000    0.00308642  16 t-inv F
  0.055556  0.333333 -0.000000    0.00308642  16 t-inv F
 -0.055556 -0.333333  0.000000    0.00308642  16 t-inv F
 -0.388889 -0.055556 -0.000000    0.00308642  17 t-inv F
  0.388889 -0.444444 -0.000000    0.00308642  17 t-inv F
 -0.388889  0.444444  0.000000    0.00308642  17 t-inv F
 -0.444444  0.388889  0.000000    0.00308642  17 t-inv F
  0.444444 -0.388889 -0.000000    0.00308642  17 t-inv F
  0.055556 -0.444444  0.000000    0.00308642  17 t-inv F
 -0.055556  0.444444 -0.000000    0.00308642  17 t-inv F
 -0.444444  0.055556 -0.000000    0.00308642  17 t-inv F
  0.444444 -0.055556  0.000000    0.00308642  17 t-inv F
  0.055556  0.388889 -0.000000    0.00308642  17 t-inv F
 -0.055556 -0.388889  0.000000    0.00308642  17 t-inv F
 -0.444444 -0.055556 -0.000000    0.00308642  18 t-inv F
  0.444444 -0.500000 -0.000000    0.00308642  18 t-inv F
 -0.444444  0.500000  0.000000    0.00308642  18 t-inv F
 -0.500000  0.444444  0.000000    0.00308642  18 t-inv F
  0.500000 -0.444444 -0.000000    0.00308642  18 t-inv F
  0.055556 -0.500000  0.000000    0.00308642  18 t-inv F
 -0.055556  0.500000 -0.000000    0.00308642  18 t-inv F
 -0.500000  0.055556 -0.000000    0.00308642  18 t-inv F
  0.500000 -0.055556  0.000000    0.00308642  18 t-inv F
  0.055556  0.444444 -0.000000    0.00308642  18 t-inv F
 -0.055556 -0.444444  0.000000    0.00308642  18 t-inv F
 -0.111111 -0.111111 -0.000000    0.00308642  19 t-inv F
  0.111111 -0.222222 -0.000000    0.00308642  19 t-inv F
 -0.111111  0.222222  0.000000    0.00308642  19 t-inv F
 -0.222222  0.111111  0.000000    0.00308642  19 t-inv F
  0.222222 -0.111111 -0.000000    0.00308642  19 t-inv F
 -0.166667 -0.111111 -0.000000    0.00308642  20 t-inv F
  0.166667 -0.277778 -0.000000    0.00308642  20 t-inv F
 -0.166667  0.277778  0.000000    0.00308642  20 t-inv F
 -0.277778  0.166667  0.000000    0.00308642  20 t-inv F
  0.277778 -0.166667 -0.000000    0.00308642  20 t-inv F
  0.111111 -0.277778  0.000000    0.00308642  20 t-inv F
 -0.111111  0.277778 -0.000000    0.00308642  20 t-inv F
 -0.277778  0.111111 -0.000000    0.00308642  20 t-inv F
  0.277778 -0.111111  0.000000    0.00308642  20 t-inv F
  0.111111  0.166667 -0.000000    0.00308642  20 t-inv F
 -0.111111 -0.166667  0.000000    0.00308642  20 t-inv F
 -0.222222 -0.111111 -0.000000    0.00308642  21 t-inv F
  0.222222 -0.333333 -0.000000    0.00308642  21 t-inv F
 -0.222222  0.333333  0.000000    0.00308642  21 t-inv F
 -0.333333  0.222222  0.000000    0.00308642  21 t-inv F
  0.333333 -0.222222 -0.000000    0.00308642  21 t-inv F
  0.111111 -0.333333  0.000000    0.00308642  21 t-inv F
 -0.111111  0.333333 -0.000000    0.00308642  21 t-inv F
 -0.333333  0.111111 -0.000000    0.00308642  21 t-inv F
  0.333333 -0.111111  0.000000    0.00308642  21 t-inv F
  0.111111  0.222222 -0.000000    0.00308642  21 t-inv F
 -0.111111 -0.222222  0.000000    0.00308642  21 t-inv F
 -0.277778 -0.111111 -0.000000    0.00308642  22 t-inv F
  0.277778 -0.388889 -0.000000    0.00308642  22 t-inv F
 -0.277778  0.388889  0.000000    0.00308642  22 t-inv F
 -0.388889  0.277778  0.000000    0.00308642  22 t-inv F
  0.388889 -0.277778 -0.000000    0.00308642  22 t-inv F
  0.111111 -0.388889  0.000000    0.00308642  22 t-inv F
 -0.111111  0.388889 -0.000000    0.00308642  22 t-inv F
 -0.388889  0.111111 -0.000000    0.00308642  22 t-inv F
  0.388889 -0.111111  0.000000    0.00308642  22 t-inv F
  0.111111  0.277778 -0.000000    0.00308642  22 t-inv F
 -0.111111 -0.277778  0.000000    0.00308642  22 t-inv F
 -0.333333 -0.111111 -0.000000    0.00308642  23 t-inv F
  0.333333 -0.444444 -0.000000    0.00308642  23 t-inv F
 -0.333333  0.444444  0.000000    0.00308642  23 t-inv F
 -0.444444  0.333333  0.000000    0.00308642  23 t-inv F
  0.444444 -0.333333 -0.000000    0.00308642  23 t-inv F
  0.111111 -0.444444  0.000000    0.00308642  23 t-inv F
 -0.111111  0.444444 -0.000000    0.00308642  23 t-inv F
 -0.444444  0.111111 -0.000000    0.00308642  23 t-inv F
  0.444444 -0.111111  0.000000    0.00308642  23 t-inv F
  0.111111  0.333333 -0.000000    0.00308642  23 t-inv F
 -0.111111 -0.333333  0.000000    0.00308642  23 t-inv F
 -0.388889 -0.111111 -0.000000    0.00308642  24 t-inv F
  0.388889 -0.500000 -0.000000    0.00308642  24 t-inv F
 -0.388889  0.500000  0.000000    0.00308642  24 t-inv F
 -0.500000  0.388889  0.000000    0.00308642  24 t-inv F
  0.500000 -0.388889 -0.000000    0.00308642  24 t-inv F
  0.111111 -0.500000  0.000000    0.00308642  24 t-inv F
 -0.111111  0.500000 -0.000000    0.00308642  24 t-inv F
 -0.500000  0.111111 -0.000000    0.00308642  24 t-inv F
  0.500000 -0.111111  0.000000    0.00308642  24 t-inv F
  0.111111  0.388889 -0.000000    0.00308642  24 t-inv F
 -0.111111 -0.388889  0.000000    0.00308642  24 t-inv F
 -0.444444 -0.111111 -0.000000    0.00308642  25 t-inv F
  0.444444 -0.555556 -0.000000    0.00308642  25 t-inv F
 -0.444444  0.555556  0.000000    0.00308642  25 t-inv F
  0.111111 -0.555556  0.000000    0.00308642  25 t-inv F
 -0.111111  0.555556 -0.000000    0.00308642  25 t-inv F
 -0.166667 -0.166667 -0.000000    0.00308642  26 t-inv F
  0.166667 -0.333333 -0.000000    0.00308642  26 t-inv F
 -0.166667  0.333333  0.000000    0.00308642  26 t-inv F
 -0.333333  0.166667  0.000000    0.00308642  26 t-inv F
  0.333333 -0.166667 -0.000000    0.00308642  26 t-inv F
 -0.222222 -0.166667 -0.000000    0.00308642  27 t-inv F
  0.222222 -0.388889 -0.000000    0.00308642  27 t-inv F
 -0.222222  0.388889  0.000000    0.00308642  27 t-inv F
 -0.388889  0.222222  0.000000    0.00308642  27 t-inv F
  0.388889 -0.222222 -0.000000    0.00308642  27 t-inv F
  0.166667 -0.388889  0.000000    0.00308642  27 t-inv F
 -0.166667  0.388889 -0.000000    0.00308642  27 t-inv F
 -0.388889  0.166667 -0.000000    0.00308642  27 t-inv F
  0.388889 -0.166667  0.000000    0.00308642  27 t-inv F
  0.166667  0.222222 -0.000000    0.00308642  27 t-inv F
 -0.166667 -0.222222  0.000000    0.00308642  27 t-inv F
 -0.277778 -0.166667 -0.000000    0.00308642  28 t-inv F
  0.277778 -0.444444 -0.000000    0.00308642  28 t-inv F
 -0.277778  0.444444  0.000000    0.00308642  28 t-inv F
 -0.444444  0.277778  0.000000    0.00308642  28 t-inv F
  0.444444 -0.277778 -0.000000    0.00308642  28 t-inv F
  0.166667 -0.444444  0.000000    0.00308642  28 t-inv F
 -0.166667  0.444444 -0.000000    0.00308642  28 t-inv F
 -0.444444  0.166667 -0.000000    0.00308642  28 t-inv F
  0.444444 -0.166667  0.000000    0.00308642  28 t-inv F
  0.166667  0.277778 -0.000000    0.00308642  28 t-inv F
 -0.166667 -0.277778  0.000000    0.00308642  28 t-inv F
 -0.333333 -0.166667 -0.000000    0.00308642  29 t-inv F
  0.333333 -0.500000 -0.000000    0.00308642  29 t-inv F
 -0.333333  0.500000  0.000000    0.00308642  29 t-inv F
 -0.500000  0.333333  0.000000    0.00308642  29 t-inv F
  0.500000 -0.333333 -0.000000    0.00308642  29 t-inv F
  0.166667 -0.500000  0.000000    0.00308642  29 t-inv F
 -0.166667  0.500000 -0.000000    0.00308642  29 t-inv F
 -0.500000  0.166667 -0.000000    0.00308642  29 t-inv F
  0.500000 -0.166667  0.000000    0.00308642  29 t-inv F
  0.166667  0.333333 -0.000000    0.00308642  29 t-inv F
 -0.166667 -0.333333  0.000000    0.00308642  29 t-inv F
 -0.388889 -0.166667 -0.000000    0.00308642  30 t-inv F
  0.388889 -0.555556 -0.000000    0.00308642  30 t-inv F
 -0.388889  0.555556  0.000000    0.00308642  30 t-inv F
 -0.555556  0.388889  0.000000    0.00308642  30 t-inv F
  0.555556 -0.388889 -0.000000    0.00308642  30 t-inv F
  0.166667 -0.555556  0.000000    0.00308642  30 t-inv F
 -0.166667  0.555556 -0.000000    0.00308642  30 t-inv F
 -0.555556  0.166667 -0.000000    0.00308642  30 t-inv F
  0.555556 -0.166667  0.000000    0.00308642  30 t-inv F
  0.166667  0.388889 -0.000000    0.00308642  30 t-inv F
 -0.166667 -0.388889  0.000000    0.00308642  30 t-inv F
 -0.222222 -0.222222 -0.000000    0.00308642  31 t-inv F
  0.222222 -0.444444 -0.000000    0.00308642  31 t-inv F
 -0.222222  0.444444  0.000000    0.00308642  31 t-inv F
 -0.444444  0.222222  0.000000    0.00308642  31 t-inv F
  0.444444 -0.222222 -0.000000    0.00308642  31 t-inv F
 -0.277778 -0.222222 -0.000000    0.00308642  32 t-inv F
  0.277778 -0.500000 -0.000000    0.00308642  32 t-inv F
 -0.277778  0.500000  0.000000    0.00308642  32 t-inv F
 -0.500000  0.277778  0.000000    0.00308642  32 t-inv F
  0.500000 -0.277778 -0.000000    0.00308642  32 t-inv F
  0.222222 -0.500000  0.000000    0.00308642  32 t-inv F
 -0.222222  0.500000 -0.000000    0.00308642  32 t-inv F
 -0.500000  0.222222 -0.000000    0.00308642  32 t-inv F
  0.500000 -0.222222  0.000000    0.00308642  32 t-inv F
  0.222222  0.277778 -0.000000    0.00308642  32 t-inv F
 -0.222222 -0.277778  0.000000    0.00308642  32 t-inv F
 -0.333333 -0.222222 -0.000000    0.00308642  33 t-inv F
  0.333333 -0.555556 -0.000000    0.00308642  33 t-inv F
 -0.333333  0.555556  0.000000    0.00308642  33 t-inv F
 -0.555556  0.333333  0.000000    0.00308642  33 t-inv F
  0.555556 -0.333333 -0.000000    0.00308642  33 t-inv F
  0.222222 -0.555556  0.000000    0.00308642  33 t-inv F
 -0.222222  0.555556 -0.000000    0.00308642  33 t-inv F
 -0.555556  0.222222 -0.000000    0.00308642  33 t-inv F
  0.555556 -0.222222  0.000000    0.00308642  33 t-inv F
  0.222222  0.333333 -0.000000    0.00308642  33 t-inv F
 -0.222222 -0.333333  0.000000    0.00308642  33 t-inv F
 -0.388889 -0.222222 -0.000000    0.00308642  34 t-inv F
  0.388889 -0.611111 -0.000000    0.00308642  34 t-inv F
 -0.388889  0.611111  0.000000    0.00308642  34 t-inv F
  0.222222 -0.611111  0.000000    0.00308642  34 t-inv F
 -0.222222  0.611111 -0.000000    0.00308642  34 t-inv F
 -0.277778 -0.277778 -0.000000    0.00308642  35 t-inv F
  0.277778 -0.555556 -0.000000    0.00308642  35 t-inv F
 -0.277778  0.555556  0.000000    0.00308642  35 t-inv F
 -0.555556  0.277778  0.000000    0.00308642  35 t-inv F
  0.555556 -0.277778 -0.000000    0.00308642  35 t-inv F
 -0.333333 -0.277778 -0.000000    0.00308642  36 t-inv F
  0.333333 -0.611111 -0.000000    0.00308642  36 t-inv F
 -0.333333  0.611111  0.000000    0.00308642  36 t-inv F
 -0.611111  0.333333  0.000000    0.00308642  36 t-inv F
  0.611111 -0.333333 -0.000000    0.00308642  36 t-inv F
  0.277778 -0.611111  0.000000    0.00308642  36 t-inv F
 -0.277778  0.611111 -0.000000    0.00308642  36 t-inv F
 -0.611111  0.277778 -0.000000    0.00308642  36 t-inv F
  0.611111 -0.277778  0.000000    0.00308642  36 t-inv F
  0.277778  0.333333 -0.000000    0.00308642  36 t-inv F
 -0.277778 -0.333333  0.000000    0.00308642  36 t-inv F
 -0.333333 -0.333333 -0.000000    0.00308642  37 t-inv F


--------------------------------------------------------------------------------------------------------




 Dimension of arrays:
   k-points           NKPTS =     37   k-points in BZ     NKDIM =     37   number of bands    NBANDS=     56
   number of dos      NEDOS =    301   number of ions     NIONS =      6
   non local maximal  LDIM  =     11   non local SUM 2l+1 LMDIM =     41
   total plane-waves  NPLWV = 128000
   max r-space proj   IRMAX =      1   max aug-charges    IRDMAX=  11329
   dimension x,y,z NGX =    20 NGY =   20 NGZ =  320
   dimension x,y,z NGXF=    40 NGYF=   40 NGZF=  640
   support grid    NGXF=    40 NGYF=   40 NGZF=  640
   ions per type =               2   4
 NGX,Y,Z   is equivalent  to a cutoff of  10.44, 10.44, 10.64 a.u.
 NGXF,Y,Z  is equivalent  to a cutoff of  20.88, 20.88, 21.28 a.u.


 I would recommend the setting:
   dimension x,y,z NGX =    19 NGY =   19 NGZ =  303
 SYSTEM =  unknown system                          
 POSCAR =  Mo  S                                   

 Startparameter for this run:
   NWRITE =      2    write-flag & timer
   PREC   = accura    normal or accurate (medium, high low for compatibility)
   ISTART =      0    job   : 0-new  1-cont  2-samecut
   ICHARG =      2    charge: 1-file 2-atom 10-const
   ISPIN  =      1    spin polarized calculation?
   LNONCOLLINEAR =      F non collinear calculations
   LSORBIT =      F    spin-orbit coupling
   INIWAV =      1    electr: 0-lowe 1-rand  2-diag
   LASPH  =      F    aspherical Exc in radial PAW
   METAGGA=      F    non-selfconsistent MetaGGA calc.

 Electronic Relaxation 1
   ENCUT  =  344.9 eV  25.35 Ry    5.03 a.u.   4.82  4.82 75.72*2*pi/ulx,y,z
   ENINI  =  344.9     initial cutoff
   ENAUG  =  964.7 eV  augmentation charge cutoff
   NELM   =     60;   NELMIN=  5; NELMDL= -5     # of ELM steps 
   EDIFF  = 0.1E-07   stopping-criterion for ELM
   LREAL  =      F    real-space projection
   NLSPLINE    = F    spline interpolate recip. space projectors
   LCOMPAT=      F    compatible to vasp.4.4
   GGA_COMPAT  = T    GGA compatible to vasp.4.4-vasp.4.6
   LMAXPAW     = -100 max onsite density
   LMAXMIX     =    2 max onsite mixed and CHGCAR
   VOSKOWN=      0    Vosko Wilk Nusair interpolation
   ROPT   =    0.00000   0.00000
 Ionic relaxation
   EDIFFG = 0.1E-06   stopping-criterion for IOM
   NSW    =      0    number of steps for IOM
   NBLOCK =      1;   KBLOCK =      1    inner block; outer block 
   IBRION =     -1    ionic relax: 0-MD 1-quasi-New 2-CG
   NFREE  =      0    steps in history (QN), initial steepest desc. (CG)
   ISIF   =      2    stress and relaxation
   IWAVPR =     10    prediction:  0-non 1-charg 2-wave 3-comb
   ISYM   =      2    0-nonsym 1-usesym 2-fastsym
   LCORR  =      T    Harris-Foulkes like correction to forces

   POTIM  = 0.5000    time-step for ionic-motion
   TEIN   =    0.0    initial temperature
   TEBEG  =    0.0;   TEEND  =   0.0 temperature during run
   SMASS  =  -3.00    Nose mass-parameter (am)
   estimated Nose-frequenzy (Omega)   =  0.10E-29 period in steps =****** mass=  -0.232E-27a.u.
   SCALEE = 1.0000    scale energy and forces
   NPACO  =    256;   APACO  = 16.0  distance and # of slots for P.C.
   PSTRESS=    0.0 pullay stress

  Mass of Ions in am
   POMASS =  95.94 32.07
  Ionic Valenz
   ZVAL   =  14.00  6.00
  Atomic Wigner-Seitz radii
   RWIGS  =  -1.00 -1.00
  virtual crystal weights 
   VCA    =   1.00  1.00
   NELECT =      52.0000    total number of electrons
   NUPDOWN=      -1.0000    fix difference up-down

 DOS related values:
   EMIN   =  10.00;   EMAX   =-10.00  energy-range for DOS
   EFERMI =   0.00
   ISMEAR =    -5;   SIGMA  =   0.01  broadening in eV -4-tet -1-fermi 0-gaus

 Electronic relaxation 2 (details)
   IALGO  =     38    algorithm
   LDIAG  =      T    sub-space diagonalisation (order eigenvalues)
   LSUBROT=      F    optimize rotation matrix (better conditioning)
   TURBO    =      0    0=normal 1=particle mesh
   IRESTART =      0    0=no restart 2=restart with 2 vectors
   NREBOOT  =      0    no. of reboots
   NMIN     =      0    reboot dimension
   EREF     =   0.00    reference energy to select bands
   IMIX   =      4    mixing-type and parameters
     AMIX     =   0.40;   BMIX     =  1.00
     AMIX_MAG =   1.60;   BMIX_MAG =  1.00
     AMIN     =   0.10
     WC   =   100.;   INIMIX=   1;  MIXPRE=   1;  MAXMIX= -45

 Intra band minimization:
   WEIMIN = 0.0000     energy-eigenvalue tresh-hold
   EBREAK =  0.45E-10  absolut break condition
   DEPER  =   0.30     relativ break condition  

   TIME   =   0.40     timestep for ELM

  volume/ion in A,a.u.               =      73.17       493.75
  Fermi-wavevector in a.u.,A,eV,Ry     =   0.803997  1.519334  8.794953  0.646411
  Thomas-Fermi vector in A             =   1.911970
 
 Write flags
   LWAVE  =      T    write WAVECAR
   LCHARG =      T    write CHGCAR
   LVTOT  =      F    write LOCPOT, total local potential
   LVHAR  =      F    write LOCPOT, Hartree potential only
   LELF   =      F    write electronic localiz. function (ELF)
   LORBIT =      0    0 simple, 1 ext, 2 COOP (PROOUT)


 Dipole corrections
   LMONO  =      F    monopole corrections only (constant potential shift)
   LDIPOL =      F    correct potential (dipole corrections)
   IDIPOL =      0    1-x, 2-y, 3-z, 4-all directions 
   EPSILON=  1.0000000 bulk dielectric constant

 Exchange correlation treatment:
   GGA     =    PE    GGA type
   LEXCH   =     8    internal setting for exchange type
   VOSKOWN=      0    Vosko Wilk Nusair interpolation
   LHFCALC =     F    Hartree Fock is set to
   LHFONE  =     F    Hartree Fock one center treatment
   AEXX    =    0.0000 exact exchange contribution

 Linear response parameters
   LEPSILON=     T    determine dielectric tensor
   LRPA    =     F    only Hartree local field effects (RPA)
   LNABLA  =     F    use nabla operator in PAW spheres
   LVEL    =     F    velocity operator in full k-point grid
   LINTERFAST=   F  fast interpolation
   KINTER  =     0    interpolate to denser k-point grid
   CSHIFT  =0.1000    complex shift for real part using Kramers Kronig
   OMEGAMAX=  -1.0    maximum frequency
   DEG_THRESHOLD= 0.2000000E-02 threshold for treating states as degnerate
   RTIME   =    0.100 relaxation time in fs

 Orbital magnetization related:
   ORBITALMAG=     F  switch on orbital magnetization
   LCHIMAG   =     F  perturbation theory with respect to B field
   DQ        =  0.001000  dq finite difference perturbation B field



--------------------------------------------------------------------------------------------------------


 Static calculation
 charge density and potential will be updated during run
 non-spin polarized calculation
 Variant of blocked Davidson
 Davidson routine will perform the subspace rotation
 perform sub-space diagonalisation
    after iterative eigenvector-optimisation
 modified Broyden-mixing scheme, WC =      100.0
 initial mixing is a Kerker type mixing with AMIX =  0.4000 and BMIX =      1.0000
 Hartree-type preconditioning will be used
 using additional bands           30
 reciprocal scheme for non local part
 use partial core corrections
 calculate Harris-corrections to forces 
   (improved forces if not selfconsistent)
 use gradient corrections 
 use of overlap-Matrix (Vanderbilt PP)
 Fermi weights with tetrahedron method with Bloechl corrections


--------------------------------------------------------------------------------------------------------


  energy-cutoff  :      344.91
  volume of cell :      439.00
      direct lattice vectors                 reciprocal lattice vectors
     3.184066465  0.000000000  0.000000000     0.314063796  0.181324817  0.000000000
    -1.592033232  2.757482446  0.000000000     0.000000000  0.362649634  0.000000000
     0.000000000  0.000000000 50.000000000     0.000000000  0.000000000  0.020000000

  length of vectors
     3.184066465  3.184066465 50.000000000     0.362649634  0.362649634  0.020000000


 
 k-points in units of 2pi/SCALE and weight: KPOINTS created by Atomic Simulation Env
   0.00000000  0.00000000  0.00000000       0.003
   0.01744799  0.01007360  0.00000000       0.019
   0.03489598  0.02014720  0.00000000       0.019
   0.05234397  0.03022080  0.00000000       0.019
   0.06979195  0.04029440  0.00000000       0.019
   0.08723994  0.05036800  0.00000000       0.019
   0.10468793  0.06044161  0.00000000       0.019
   0.12213592  0.07051521  0.00000000       0.019
   0.13958391  0.08058881  0.00000000       0.019
   0.15703190  0.09066241  0.00000000       0.009
   0.01744799  0.03022080  0.00000000       0.019
   0.03489598  0.04029440  0.00000000       0.037
   0.05234397  0.05036800  0.00000000       0.037
   0.06979195  0.06044161  0.00000000       0.037
   0.08723994  0.07051521  0.00000000       0.037
   0.10468793  0.08058881  0.00000000       0.037
   0.12213592  0.09066241  0.00000000       0.037
   0.13958391  0.10073601  0.00000000       0.037
   0.03489598  0.06044161  0.00000000       0.019
   0.05234397  0.07051521  0.00000000       0.037
   0.06979195  0.08058881  0.00000000       0.037
   0.08723994  0.09066241  0.00000000       0.037
   0.10468793  0.10073601  0.00000000       0.037
   0.12213592  0.11080961  0.00000000       0.037
   0.13958391  0.12088321  0.00000000       0.019
   0.05234397  0.09066241  0.00000000       0.019
   0.06979195  0.10073601  0.00000000       0.037
   0.08723994  0.11080961  0.00000000       0.037
   0.10468793  0.12088321  0.00000000       0.037
   0.12213592  0.13095681  0.00000000       0.037
   0.06979195  0.12088321  0.00000000       0.019
   0.08723994  0.13095681  0.00000000       0.037
   0.10468793  0.14103041  0.00000000       0.037
   0.12213592  0.15110401  0.00000000       0.019
   0.08723994  0.15110401  0.00000000       0.019
   0.10468793  0.16117762  0.00000000       0.037
   0.10468793  0.18132482  0.00000000       0.006
 
 k-points in reciprocal lattice and weights: KPOINTS created by Atomic Simulation Env
   0.00000000  0.00000000  0.00000000       0.003
   0.05555556  0.00000000  0.00000000       0.019
   0.11111111  0.00000000  0.00000000       0.019
   0.16666667  0.00000000  0.00000000       0.019
   0.22222222  0.00000000  0.00000000       0.019
   0.27777778  0.00000000  0.00000000       0.019
   0.33333333  0.00000000  0.00000000       0.019
   0.38888889  0.00000000  0.00000000       0.019
   0.44444444  0.00000000  0.00000000       0.019
   0.50000000  0.00000000  0.00000000       0.009
   0.05555556  0.05555556  0.00000000       0.019
   0.11111111  0.05555556  0.00000000       0.037
   0.16666667  0.05555556  0.00000000       0.037
   0.22222222  0.05555556  0.00000000       0.037
   0.27777778  0.05555556  0.00000000       0.037
   0.33333333  0.05555556  0.00000000       0.037
   0.38888889  0.05555556  0.00000000       0.037
   0.44444444  0.05555556  0.00000000       0.037
   0.11111111  0.11111111  0.00000000       0.019
   0.16666667  0.11111111  0.00000000       0.037
   0.22222222  0.11111111  0.00000000       0.037
   0.27777778  0.11111111  0.00000000       0.037
   0.33333333  0.11111111  0.00000000       0.037
   0.38888889  0.11111111  0.00000000       0.037
   0.44444444  0.11111111  0.00000000       0.019
   0.16666667  0.16666667  0.00000000       0.019
   0.22222222  0.16666667  0.00000000       0.037
   0.27777778  0.16666667  0.00000000       0.037
   0.33333333  0.16666667  0.00000000       0.037
   0.38888889  0.16666667  0.00000000       0.037
   0.22222222  0.22222222  0.00000000       0.019
   0.27777778  0.22222222  0.00000000       0.037
   0.33333333  0.22222222  0.00000000       0.037
   0.38888889  0.22222222  0.00000000       0.019
   0.27777778  0.27777778  0.00000000       0.019
   0.33333333  0.27777778  0.00000000       0.037
   0.33333333  0.33333333  0.00000000       0.006
 
 position of ions in fractional coordinates (direct lattice) 
   0.16666667  0.33333333  0.43850000
   0.83333333  0.66666667  0.56150000
   0.83333333  0.66666667  0.46977113
   0.83333333  0.66666667  0.40722887
   0.16666667  0.33333333  0.59277113
   0.16666667  0.33333333  0.53022887
 
 position of ions in cartesian coordinates  (Angst):
  -0.00000000  0.91916082 21.92500000
   1.59203323  1.83832163 28.07500000
   1.59203323  1.83832163 23.48855632
   1.59203323  1.83832163 20.36144368
  -0.00000000  0.91916082 29.63855632
  -0.00000000  0.91916082 26.51144368
 


--------------------------------------------------------------------------------------------------------


 k-point  1 :   0.0000 0.0000 0.0000  plane waves:    6379
 k-point  2 :   0.0556 0.0000 0.0000  plane waves:    6371
 k-point  3 :   0.1111 0.0000 0.0000  plane waves:    6357
 k-point  4 :   0.1667 0.0000 0.0000  plane waves:    6343
 k-point  5 :   0.2222 0.0000 0.0000  plane waves:    6348
 k-point  6 :   0.2778 0.0000 0.0000  plane waves:    6382
 k-point  7 :   0.3333 0.0000 0.0000  plane waves:    6374
 k-point  8 :   0.3889 0.0000 0.0000  plane waves:    6386
 k-point  9 :   0.4444 0.0000 0.0000  plane waves:    6428
 k-point 10 :   0.5000 0.0000 0.0000  plane waves:    6428
 k-point 11 :   0.0556 0.0556 0.0000  plane waves:    6371
 k-point 12 :   0.1111 0.0556 0.0000  plane waves:    6351
 k-point 13 :   0.1667 0.0556 0.0000  plane waves:    6336
 k-point 14 :   0.2222 0.0556 0.0000  plane waves:    6361
 k-point 15 :   0.2778 0.0556 0.0000  plane waves:    6389
 k-point 16 :   0.3333 0.0556 0.0000  plane waves:    6385
 k-point 17 :   0.3889 0.0556 0.0000  plane waves:    6391
 k-point 18 :   0.4444 0.0556 0.0000  plane waves:    6418
 k-point 19 :   0.1111 0.1111 0.0000  plane waves:    6345
 k-point 20 :   0.1667 0.1111 0.0000  plane waves:    6341
 k-point 21 :   0.2222 0.1111 0.0000  plane waves:    6378
 k-point 22 :   0.2778 0.1111 0.0000  plane waves:    6385
 k-point 23 :   0.3333 0.1111 0.0000  plane waves:    6389
 k-point 24 :   0.3889 0.1111 0.0000  plane waves:    6407
 k-point 25 :   0.4444 0.1111 0.0000  plane waves:    6404
 k-point 26 :   0.1667 0.1667 0.0000  plane waves:    6345
 k-point 27 :   0.2222 0.1667 0.0000  plane waves:    6372
 k-point 28 :   0.2778 0.1667 0.0000  plane waves:    6381
 k-point 29 :   0.3333 0.1667 0.0000  plane waves:    6400
 k-point 30 :   0.3889 0.1667 0.0000  plane waves:    6418
 k-point 31 :   0.2222 0.2222 0.0000  plane waves:    6397
 k-point 32 :   0.2778 0.2222 0.0000  plane waves:    6386
 k-point 33 :   0.3333 0.2222 0.0000  plane waves:    6422
 k-point 34 :   0.3889 0.2222 0.0000  plane waves:    6455
 k-point 35 :   0.2778 0.2778 0.0000  plane waves:    6407
 k-point 36 :   0.3333 0.2778 0.0000  plane waves:    6434
 k-point 37 :   0.3333 0.3333 0.0000  plane waves:    6429

 maximum and minimum number of plane-waves per node :      6455     6336

 maximum number of plane-waves:      6455
 maximum index in each direction: 
   IXMAX=    4   IYMAX=    4   IZMAX=   75
   IXMIN=   -5   IYMIN=   -5   IZMIN=  -75

 NGX is ok and might be reduce to  20
 NGY is ok and might be reduce to  20
 NGZ is ok and might be reduce to 302

 serial   3D FFT for wavefunctions
 parallel 3D FFT for charge:
    minimum data exchange during FFTs selected (reduces bandwidth)


 total amount of memory used by VASP on root node   206069. kBytes
========================================================================

   base      :      30000. kBytes
   nonl-proj :     157612. kBytes
   fftplans  :       2116. kBytes
   grid      :       8000. kBytes
   one-center:        484. kBytes
   wavefun   :       7857. kBytes
 
     INWAV:  cpu time    0.0010: real time    0.0015
 Broyden mixing: mesh for mixing (old mesh)
   NGX =  9   NGY =  9   NGZ =151
  (NGX  = 40   NGY  = 40   NGZ  =640)
  gives a total of  12231 points

 initial charge density was supplied:
 charge density of overlapping atoms calculated
 number of electron      52.0000000 magnetization 
 keeping initial charge density in first step


--------------------------------------------------------------------------------------------------------


 Maximum index for augmentation-charges          905 (set IRDMAX)


--------------------------------------------------------------------------------------------------------


 First call to EWALD:  gamma=   0.233
 Maximum number of real-space cells 7x 7x 1
 Maximum number of reciprocal cells 1x 1x15

 FEWALD executed in parallel
    FEWALD:  cpu time    0.0080: real time    0.0078


----------------------------------------- Iteration    1(   1)  ---------------------------------------


    POTLOK:  cpu time    0.1980: real time    0.2002
    SETDIJ:  cpu time    0.0410: real time    0.0404
     EDDAV:  cpu time   21.0718: real time   21.5114
 BZINTS: Fermi energy:  5.818270; 52.000000 electrons
         Band energy:-645.741455;  BLOECHL correction: -0.094021
       DOS:  cpu time    0.1200: real time    0.1202
    --------------------------------------------
      LOOP:  cpu time   21.4357: real time   21.8840

 eigenvalue-minimisations  :  5180
 total energy-change (2. order) : 0.2521348E+03  (-0.2106279E+04)
 number of electron      52.0000000 magnetization 
 augmentation part       52.0000000 magnetization 

 Free energy of the ion-electron system (eV)
  ---------------------------------------------------
  alpha Z        PSCENC =        43.56001276
  Ewald energy   TEWEN  =     66198.39570275
  -Hartree energ DENC   =    -70381.15873445
  -exchange      EXHF   =         0.00000000
  -V(xc)+E(xc)   XCENC  =       167.40591838
  PAW double counting   =      3905.22371462    -3865.63498383
  entropy T*S    EENTRO =         0.00000000
  eigenvalues    EBANDS =      -645.74145520
  atomic energy  EATOM  =      4830.08457801
  Solvation  Ediel_sol  =         0.00000000
  ---------------------------------------------------
  free energy    TOTEN  =       252.13475302 eV

  energy without entropy =      252.13475302  energy(sigma->0) =      252.13475302


--------------------------------------------------------------------------------------------------------




----------------------------------------- Iteration    1(   2)  ---------------------------------------


     EDDAV:  cpu time   34.2758: real time   34.9945
 BZINTS: Fermi energy:  0.067619; 52.000000 electrons
         Band energy:-925.137809;  BLOECHL correction:  0.000000
       DOS:  cpu time    0.0260: real time    0.0258
    --------------------------------------------
      LOOP:  cpu time   34.3088: real time   35.0538

 eigenvalue-minimisations  :  6244
 total energy-change (2. order) :-0.2793964E+03  (-0.2499773E+03)
 number of electron      52.0000000 magnetization 
 augmentation part       52.0000000 magnetization 

 Free energy of the ion-electron system (eV)
  ---------------------------------------------------
  alpha Z        PSCENC =        43.56001276
  Ewald energy   TEWEN  =     66198.39570275
  -Hartree energ DENC   =    -70381.15873445
  -exchange      EXHF   =         0.00000000
  -V(xc)+E(xc)   XCENC  =       167.40591838
  PAW double counting   =      3905.22371462    -3865.63498383
  entropy T*S    EENTRO =         0.00000000
  eigenvalues    EBANDS =      -925.13780866
  atomic energy  EATOM  =      4830.08457801
  Solvation  Ediel_sol  =         0.00000000
  ---------------------------------------------------
  free energy    TOTEN  =       -27.26160044 eV

  energy without entropy =      -27.26160044  energy(sigma->0) =      -27.26160044


--------------------------------------------------------------------------------------------------------




----------------------------------------- Iteration    1(   3)  ---------------------------------------


     EDDAV:  cpu time   29.8875: real time   30.3074
 BZINTS: Fermi energy: -1.262387; 52.000000 electrons
         Band energy:-949.052804;  BLOECHL correction:  0.000000
       DOS:  cpu time    0.0250: real time    0.0256
    --------------------------------------------
      LOOP:  cpu time   29.9175: real time   30.3427

 eigenvalue-minimisations  :  5208
 total energy-change (2. order) :-0.2391500E+02  (-0.2361070E+02)
 number of electron      52.0000000 magnetization 
 augmentation part       52.0000000 magnetization 

 Free energy of the ion-electron system (eV)
  ---------------------------------------------------
  alpha Z        PSCENC =        43.56001276
  Ewald energy   TEWEN  =     66198.39570275
  -Hartree energ DENC   =    -70381.15873445
  -exchange      EXHF   =         0.00000000
  -V(xc)+E(xc)   XCENC  =       167.40591838
  PAW double counting   =      3905.22371462    -3865.63498383
  entropy T*S    EENTRO =         0.00000000
  eigenvalues    EBANDS =      -949.05280438
  atomic energy  EATOM  =      4830.08457801
  Solvation  Ediel_sol  =         0.00000000
  ---------------------------------------------------
  free energy    TOTEN  =       -51.17659616 eV

  energy without entropy =      -51.17659616  energy(sigma->0) =      -51.17659616


--------------------------------------------------------------------------------------------------------




----------------------------------------- Iteration    1(   4)  ---------------------------------------


     EDDAV:  cpu time   36.6224: real time   37.6208
 BZINTS: Fermi energy: -1.422326; 52.000000 electrons
         Band energy:-950.264212;  BLOECHL correction:  0.000000
       DOS:  cpu time    0.0310: real time    0.0309
    --------------------------------------------
      LOOP:  cpu time   36.6804: real time   37.7091

 eigenvalue-minimisations  :  7420
 total energy-change (2. order) :-0.1211408E+01  (-0.1210075E+01)
 number of electron      52.0000000 magnetization 
 augmentation part       52.0000000 magnetization 

 Free energy of the ion-electron system (eV)
  ---------------------------------------------------
  alpha Z        PSCENC =        43.56001276
  Ewald energy   TEWEN  =     66198.39570275
  -Hartree energ DENC   =    -70381.15873445
  -exchange      EXHF   =         0.00000000
  -V(xc)+E(xc)   XCENC  =       167.40591838
  PAW double counting   =      3905.22371462    -3865.63498383
  entropy T*S    EENTRO =         0.00000000
  eigenvalues    EBANDS =      -950.26421197
  atomic energy  EATOM  =      4830.08457801
  Solvation  Ediel_sol  =         0.00000000
  ---------------------------------------------------
  free energy    TOTEN  =       -52.38800375 eV

  energy without entropy =      -52.38800375  energy(sigma->0) =      -52.38800375


--------------------------------------------------------------------------------------------------------




----------------------------------------- Iteration    1(   5)  ---------------------------------------


     EDDAV:  cpu time   27.6498: real time   28.2157
 BZINTS: Fermi energy: -1.267434; 52.000000 electrons
         Band energy:-950.274567;  BLOECHL correction:  0.000000
       DOS:  cpu time    0.0260: real time    0.0257
    CHARGE:  cpu time    0.6969: real time    0.7014
    MIXING:  cpu time    0.0060: real time    0.0064
    --------------------------------------------
      LOOP:  cpu time   28.4007: real time   28.9772

 eigenvalue-minimisations  :  5040
 total energy-change (2. order) :-0.1035471E-01  (-0.1035243E-01)
 number of electron      52.0000004 magnetization 
 augmentation part       -3.6227898 magnetization 

 Broyden mixing:
  rms(total) = 0.14918E+01    rms(broyden)= 0.14909E+01
  rms(prec ) = 0.15295E+01
  weight for this iteration     100.00

 Free energy of the ion-electron system (eV)
  ---------------------------------------------------
  alpha Z        PSCENC =        43.56001276
  Ewald energy   TEWEN  =     66198.39570275
  -Hartree energ DENC   =    -70381.15873445
  -exchange      EXHF   =         0.00000000
  -V(xc)+E(xc)   XCENC  =       167.40591838
  PAW double counting   =      3905.22371462    -3865.63498383
  entropy T*S    EENTRO =         0.00000000
  eigenvalues    EBANDS =      -950.27456668
  atomic energy  EATOM  =      4830.08457801
  Solvation  Ediel_sol  =         0.00000000
  ---------------------------------------------------
  free energy    TOTEN  =       -52.39835846 eV

  energy without entropy =      -52.39835846  energy(sigma->0) =      -52.39835846


--------------------------------------------------------------------------------------------------------




----------------------------------------- Iteration    1(   6)  ---------------------------------------


    POTLOK:  cpu time    0.1850: real time    0.1856
    SETDIJ:  cpu time    0.0400: real time    0.0413
     EDDAV:  cpu time   26.3620: real time   26.5720
 BZINTS: Fermi energy: -3.172062; 52.000000 electrons
         Band energy:***********;  BLOECHL correction:  0.000000
       DOS:  cpu time    0.0240: real time    0.0240
    CHARGE:  cpu time    0.6259: real time    0.6311
    MIXING:  cpu time    0.0070: real time    0.0078
    --------------------------------------------
      LOOP:  cpu time   27.2479: real time   27.4898

 eigenvalue-minimisations  :  6580
 total energy-change (2. order) : 0.5534020E+01  (-0.3133466E+01)
 number of electron      52.0000006 magnetization 
 augmentation part       -2.6154561 magnetization 

 Broyden mixing:
  rms(total) = 0.81519E+00    rms(broyden)= 0.81480E+00
  rms(prec ) = 0.84304E+00
  weight for this iteration     100.00

 eigenvalues of (default mixing * dielectric matrix)
  average eigenvalue GAMMA=   0.7137
  0.7137

 Free energy of the ion-electron system (eV)
  ---------------------------------------------------
  alpha Z        PSCENC =        43.56001276
  Ewald energy   TEWEN  =     66198.39570275
  -Hartree energ DENC   =    -70268.39428167
  -exchange      EXHF   =         0.00000000
  -V(xc)+E(xc)   XCENC  =       165.09064937
  PAW double counting   =      3741.15993913    -3704.18103717
  entropy T*S    EENTRO =         0.00000000
  eigenvalues    EBANDS =     -1052.57990207
  atomic energy  EATOM  =      4830.08457801
  Solvation  Ediel_sol  =         0.00000000
  ---------------------------------------------------
  free energy    TOTEN  =       -46.86433890 eV

  energy without entropy =      -46.86433890  energy(sigma->0) =      -46.86433890


--------------------------------------------------------------------------------------------------------




----------------------------------------- Iteration    1(   7)  ---------------------------------------


    POTLOK:  cpu time    0.1750: real time    0.1772
    SETDIJ:  cpu time    0.0400: real time    0.0399
     EDDAV:  cpu time   34.8367: real time   35.5330
 BZINTS: Fermi energy: -2.456400; 52.000000 electrons
         Band energy:-997.812557;  BLOECHL correction:  0.000000
       DOS:  cpu time    0.0430: real time    0.0436
    CHARGE:  cpu time    0.7139: real time    0.7180
    MIXING:  cpu time    0.0080: real time    0.0078
    --------------------------------------------
      LOOP:  cpu time   35.8216: real time   36.5516

 eigenvalue-minimisations  :  6580
 total energy-change (2. order) : 0.1537161E+01  (-0.8652736E+00)
 number of electron      52.0000005 magnetization 
 augmentation part       -3.0704778 magnetization 

 Broyden mixing:
  rms(total) = 0.40799E+00    rms(broyden)= 0.40784E+00
  rms(prec ) = 0.41178E+00
  weight for this iteration     100.00

 eigenvalues of (default mixing * dielectric matrix)
  average eigenvalue GAMMA=   1.5638
  2.5253  0.6022

 Free energy of the ion-electron system (eV)
  ---------------------------------------------------
  alpha Z        PSCENC =        43.56001276
  Ewald energy   TEWEN  =     66198.39570275
  -Hartree energ DENC   =    -70323.59002145
  -exchange      EXHF   =         0.00000000
  -V(xc)+E(xc)   XCENC  =       165.77851513
  PAW double counting   =      3852.47637107    -3814.21977865
  entropy T*S    EENTRO =         0.00000000
  eigenvalues    EBANDS =      -997.81255749
  atomic energy  EATOM  =      4830.08457801
  Solvation  Ediel_sol  =         0.00000000
  ---------------------------------------------------
  free energy    TOTEN  =       -45.32717788 eV

  energy without entropy =      -45.32717788  energy(sigma->0) =      -45.32717788


--------------------------------------------------------------------------------------------------------




----------------------------------------- Iteration    1(   8)  ---------------------------------------


    POTLOK:  cpu time    0.1870: real time    0.1875
    SETDIJ:  cpu time    0.0400: real time    0.0411
     EDDAV:  cpu time   28.3397: real time   28.5596
 BZINTS: Fermi energy: -2.690102; 52.000000 electrons
         Band energy:***********;  BLOECHL correction:  0.000000
       DOS:  cpu time    0.0220: real time    0.0217
    CHARGE:  cpu time    0.6269: real time    0.6325
    MIXING:  cpu time    0.0060: real time    0.0061
    --------------------------------------------
      LOOP:  cpu time   29.2236: real time   29.4781

 eigenvalue-minimisations  :  7028
 total energy-change (2. order) : 0.8951449E-01  (-0.1208657E+00)
 number of electron      52.0000005 magnetization 
 augmentation part       -2.9032180 magnetization 

 Broyden mixing:
  rms(total) = 0.16002E+00    rms(broyden)= 0.15999E+00
  rms(prec ) = 0.16544E+00
  weight for this iteration     100.00

 eigenvalues of (default mixing * dielectric matrix)
  average eigenvalue GAMMA=   1.3675
  0.5671  1.1229  2.4124

 Free energy of the ion-electron system (eV)
  ---------------------------------------------------
  alpha Z        PSCENC =        43.56001276
  Ewald energy   TEWEN  =     66198.39570275
  -Hartree energ DENC   =    -70310.37745988
  -exchange      EXHF   =         0.00000000
  -V(xc)+E(xc)   XCENC  =       165.25610682
  PAW double counting   =      3837.54937797    -3799.33147316
  entropy T*S    EENTRO =         0.00000000
  eigenvalues    EBANDS =     -1010.37450866
  atomic energy  EATOM  =      4830.08457801
  Solvation  Ediel_sol  =         0.00000000
  ---------------------------------------------------
  free energy    TOTEN  =       -45.23766340 eV

  energy without entropy =      -45.23766340  energy(sigma->0) =      -45.23766340


--------------------------------------------------------------------------------------------------------




----------------------------------------- Iteration    1(   9)  ---------------------------------------


    POTLOK:  cpu time    0.1770: real time    0.1773
    SETDIJ:  cpu time    0.0390: real time    0.0398
     EDDAV:  cpu time   38.0102: real time   38.5823
 BZINTS: Fermi energy: -2.458415; 52.000000 electrons
         Band energy:-999.291257;  BLOECHL correction:  0.000000
       DOS:  cpu time    0.0250: real time    0.0254
    CHARGE:  cpu time    0.6519: real time    0.6550
    MIXING:  cpu time    0.0080: real time    0.0075
    --------------------------------------------
      LOOP:  cpu time   38.9131: real time   39.4951

 eigenvalue-minimisations  :  7000
 total energy-change (2. order) : 0.7931458E-01  (-0.2505530E-01)
 number of electron      52.0000005 magnetization 
 augmentation part       -2.9927376 magnetization 

 Broyden mixing:
  rms(total) = 0.26612E-01    rms(broyden)= 0.26540E-01
  rms(prec ) = 0.27014E-01
  weight for this iteration     100.00

 eigenvalues of (default mixing * dielectric matrix)
  average eigenvalue GAMMA=   1.4695
  2.5810  1.7358  0.5658  0.9956

 Free energy of the ion-electron system (eV)
  ---------------------------------------------------
  alpha Z        PSCENC =        43.56001276
  Ewald energy   TEWEN  =     66198.39570275
  -Hartree energ DENC   =    -70321.84658513
  -exchange      EXHF   =         0.00000000
  -V(xc)+E(xc)   XCENC  =       165.46707559
  PAW double counting   =      3856.25915173    -3817.78702741
  entropy T*S    EENTRO =         0.00000000
  eigenvalues    EBANDS =      -999.29125711
  atomic energy  EATOM  =      4830.08457801
  Solvation  Ediel_sol  =         0.00000000
  ---------------------------------------------------
  free energy    TOTEN  =       -45.15834882 eV

  energy without entropy =      -45.15834882  energy(sigma->0) =      -45.15834882


--------------------------------------------------------------------------------------------------------




----------------------------------------- Iteration    1(  10)  ---------------------------------------


    POTLOK:  cpu time    0.1860: real time    0.1885
    SETDIJ:  cpu time    0.0420: real time    0.0415
     EDDAV:  cpu time   23.3385: real time   23.5362
 BZINTS: Fermi energy: -2.446079; 52.000000 electrons
         Band energy:-997.909014;  BLOECHL correction:  0.000000
       DOS:  cpu time    0.0260: real time    0.0260
    CHARGE:  cpu time    0.6259: real time    0.6314
    MIXING:  cpu time    0.0080: real time    0.0076
    --------------------------------------------
      LOOP:  cpu time   24.2333: real time   24.4566

 eigenvalue-minimisations  :  5684
 total energy-change (2. order) : 0.6303045E-03  (-0.1448649E-02)
 number of electron      52.0000005 magnetization 
 augmentation part       -2.9943344 magnetization 

 Broyden mixing:
  rms(total) = 0.82896E-02    rms(broyden)= 0.82829E-02
  rms(prec ) = 0.86333E-02
  weight for this iteration     100.00

 eigenvalues of (default mixing * dielectric matrix)
  average eigenvalue GAMMA=   1.3916
  2.5755  1.6859  0.5663  1.1872  0.9429

 Free energy of the ion-electron system (eV)
  ---------------------------------------------------
  alpha Z        PSCENC =        43.56001276
  Ewald energy   TEWEN  =     66198.39570275
  -Hartree energ DENC   =    -70323.30968799
  -exchange      EXHF   =         0.00000000
  -V(xc)+E(xc)   XCENC  =       165.51680799
  PAW double counting   =      3857.70145624    -3819.19757476
  entropy T*S    EENTRO =         0.00000000
  eigenvalues    EBANDS =      -997.90901351
  atomic energy  EATOM  =      4830.08457801
  Solvation  Ediel_sol  =         0.00000000
  ---------------------------------------------------
  free energy    TOTEN  =       -45.15771851 eV

  energy without entropy =      -45.15771851  energy(sigma->0) =      -45.15771851


--------------------------------------------------------------------------------------------------------




----------------------------------------- Iteration    1(  11)  ---------------------------------------


    POTLOK:  cpu time    0.1750: real time    0.1756
    SETDIJ:  cpu time    0.0410: real time    0.0415
     EDDAV:  cpu time   33.7949: real time   34.2831
 BZINTS: Fermi energy: -2.381930; 52.000000 electrons
         Band energy:-996.631643;  BLOECHL correction:  0.000000
       DOS:  cpu time    0.0240: real time    0.0238
    CHARGE:  cpu time    0.6289: real time    0.6327
    MIXING:  cpu time    0.0070: real time    0.0078
    --------------------------------------------
      LOOP:  cpu time   34.6727: real time   35.1729

 eigenvalue-minimisations  :  6160
 total energy-change (2. order) : 0.1826250E-03  (-0.1424715E-03)
 number of electron      52.0000005 magnetization 
 augmentation part       -2.9919542 magnetization 

 Broyden mixing:
  rms(total) = 0.37493E-02    rms(broyden)= 0.37464E-02
  rms(prec ) = 0.40278E-02
  weight for this iteration     100.00

 eigenvalues of (default mixing * dielectric matrix)
  average eigenvalue GAMMA=   1.3740
  2.3789  1.9057  0.5660  1.4139  1.1376  0.8421

 Free energy of the ion-electron system (eV)
  ---------------------------------------------------
  alpha Z        PSCENC =        43.56001276
  Ewald energy   TEWEN  =     66198.39570275
  -Hartree energ DENC   =    -70324.56187007
  -exchange      EXHF   =         0.00000000
  -V(xc)+E(xc)   XCENC  =       165.51150477
  PAW double counting   =      3856.01185858    -3817.52767971
  entropy T*S    EENTRO =         0.00000000
  eigenvalues    EBANDS =      -996.63164297
  atomic energy  EATOM  =      4830.08457801
  Solvation  Ediel_sol  =         0.00000000
  ---------------------------------------------------
  free energy    TOTEN  =       -45.15753589 eV

  energy without entropy =      -45.15753589  energy(sigma->0) =      -45.15753589


--------------------------------------------------------------------------------------------------------




----------------------------------------- Iteration    1(  12)  ---------------------------------------


    POTLOK:  cpu time    0.1810: real time    0.1830
    SETDIJ:  cpu time    0.0410: real time    0.0412
     EDDAV:  cpu time   34.2158: real time   34.9214
 BZINTS: Fermi energy: -2.384382; 52.000000 electrons
         Band energy:-995.579212;  BLOECHL correction:  0.000000
       DOS:  cpu time    0.0220: real time    0.0219
    CHARGE:  cpu time    0.6249: real time    0.6307
    MIXING:  cpu time    0.0080: real time    0.0074
    --------------------------------------------
      LOOP:  cpu time   35.0957: real time   35.8124

 eigenvalue-minimisations  :  6300
 total energy-change (2. order) : 0.7443893E-04  (-0.1937931E-04)
 number of electron      52.0000005 magnetization 
 augmentation part       -2.9925107 magnetization 

 Broyden mixing:
  rms(total) = 0.23779E-02    rms(broyden)= 0.23772E-02
  rms(prec ) = 0.26012E-02
  weight for this iteration     100.00

 eigenvalues of (default mixing * dielectric matrix)
  average eigenvalue GAMMA=   1.4525
  2.5685  2.5685  1.3487  1.3487  0.5662  0.9747  0.7923

 Free energy of the ion-electron system (eV)
  ---------------------------------------------------
  alpha Z        PSCENC =        43.56001276
  Ewald energy   TEWEN  =     66198.39570275
  -Hartree energ DENC   =    -70325.60511153
  -exchange      EXHF   =         0.00000000
  -V(xc)+E(xc)   XCENC  =       165.51290675
  PAW double counting   =      3854.89055725    -3816.41689589
  entropy T*S    EENTRO =         0.00000000
  eigenvalues    EBANDS =      -995.57921154
  atomic energy  EATOM  =      4830.08457801
  Solvation  Ediel_sol  =         0.00000000
  ---------------------------------------------------
  free energy    TOTEN  =       -45.15746145 eV

  energy without entropy =      -45.15746145  energy(sigma->0) =      -45.15746145


--------------------------------------------------------------------------------------------------------




----------------------------------------- Iteration    1(  13)  ---------------------------------------


    POTLOK:  cpu time    0.1770: real time    0.1775
    SETDIJ:  cpu time    0.0400: real time    0.0413
     EDDAV:  cpu time   33.2070: real time   33.7798
 BZINTS: Fermi energy: -2.385810; 52.000000 electrons
         Band energy:-994.267650;  BLOECHL correction:  0.000000
       DOS:  cpu time    0.0220: real time    0.0217
    CHARGE:  cpu time    0.6329: real time    0.6363
    MIXING:  cpu time    0.0080: real time    0.0076
    --------------------------------------------
      LOOP:  cpu time   34.0938: real time   34.6901

 eigenvalue-minimisations  :  6020
 total energy-change (2. order) : 0.3151868E-04  (-0.5962212E-05)
 number of electron      52.0000005 magnetization 
 augmentation part       -2.9920557 magnetization 

 Broyden mixing:
  rms(total) = 0.10599E-02    rms(broyden)= 0.10597E-02
  rms(prec ) = 0.12565E-02
  weight for this iteration     100.00

 eigenvalues of (default mixing * dielectric matrix)
  average eigenvalue GAMMA=   1.4748
  2.8340  2.3469  1.6475  1.6475  0.5662  0.9958  0.9958  0.7649

 Free energy of the ion-electron system (eV)
  ---------------------------------------------------
  alpha Z        PSCENC =        43.56001276
  Ewald energy   TEWEN  =     66198.39570275
  -Hartree energ DENC   =    -70326.91815383
  -exchange      EXHF   =         0.00000000
  -V(xc)+E(xc)   XCENC  =       165.51703288
  PAW double counting   =      3853.99297877    -3815.52193112
  entropy T*S    EENTRO =         0.00000000
  eigenvalues    EBANDS =      -994.26765015
  atomic energy  EATOM  =      4830.08457801
  Solvation  Ediel_sol  =         0.00000000
  ---------------------------------------------------
  free energy    TOTEN  =       -45.15742993 eV

  energy without entropy =      -45.15742993  energy(sigma->0) =      -45.15742993


--------------------------------------------------------------------------------------------------------




----------------------------------------- Iteration    1(  14)  ---------------------------------------


    POTLOK:  cpu time    0.1780: real time    0.1793
    SETDIJ:  cpu time    0.0400: real time    0.0397
     EDDAV:  cpu time   33.5229: real time   33.8115
 BZINTS: Fermi energy: -2.384227; 52.000000 electrons
         Band energy:-993.499227;  BLOECHL correction:  0.000000
       DOS:  cpu time    0.0220: real time    0.0217
    CHARGE:  cpu time    0.6259: real time    0.6311
    MIXING:  cpu time    0.0070: real time    0.0079
    --------------------------------------------
      LOOP:  cpu time   34.3978: real time   34.6993

 eigenvalue-minimisations  :  6076
 total energy-change (2. order) :-0.2146143E-04  (-0.1138724E-05)
 number of electron      52.0000005 magnetization 
 augmentation part       -2.9918901 magnetization 

 Broyden mixing:
  rms(total) = 0.60786E-03    rms(broyden)= 0.60780E-03
  rms(prec ) = 0.77735E-03
  weight for this iteration     100.00

 eigenvalues of (default mixing * dielectric matrix)
  average eigenvalue GAMMA=   1.5990
  3.2023  2.7889  2.4375  1.3508  1.3508  0.5662  0.9680  0.9469  0.7795

 Free energy of the ion-electron system (eV)
[...]
      LOOP:  cpu time   22.4216: real time   22.7013

 Broyden mixing:
  rms(total) = 0.11002E-04    rms(broyden)= 0.10999E-04
  rms(prec ) = 0.13769E-04
  weight for this iteration     100.00

 eigenvalues of (default mixing * dielectric matrix)
  average eigenvalue GAMMA=   2.1767
  7.6245  6.1538  3.2920  3.2920  2.2270  2.2270  1.4884  1.4884  0.7387  1.1360
  1.1360  0.9777  0.9777  0.9076  0.5746  0.5853

 Free energy of the ion-electron system (eV)
  ---------------------------------------------------
  -Hartree energ DENC   =        -0.25691730
  -V(xc)+E(xc)   XCENC  =         0.00340178
  PAW double counting   =         0.00756288       -0.00757297
  entropy T*S    EENTRO =         0.00000000
  eigenvalues    EBANDS =        -0.06712939
  ---------------------------------------------------
  free energy    TOTEN  =        -0.32065500 eV

  energy without entropy =       -0.32065500


----------------------------------------- Iteration    3(  19)  ---------------------------------------


   POT+DIJ:  cpu time    0.4689: real time    0.4717
    HAMIL1:  cpu time    3.9154: real time    3.9607
    LRDIAG:  cpu time    0.7189: real time    0.7236
    LRDIIS:  cpu time   15.5526: real time   15.7038
    LRDIAG:  cpu time    0.7419: real time    0.7551
    MIXING:  cpu time    0.0100: real time    0.0118
    --------------------------------------------
      LOOP:  cpu time   22.6576: real time   22.8924

 Broyden mixing:
  rms(total) = 0.79649E-05    rms(broyden)= 0.79631E-05
  rms(prec ) = 0.99883E-05
  weight for this iteration     100.00

 eigenvalues of (default mixing * dielectric matrix)
  average eigenvalue GAMMA=   2.2839
  7.8136  6.7699  3.7535  3.7535  2.5143  2.5143  1.8137  1.8137  1.3721  1.1855
  0.9837  0.9837  0.9135  0.5746  0.7387  0.7469  0.5812

 Free energy of the ion-electron system (eV)
  ---------------------------------------------------
  -Hartree energ DENC   =        -0.25691911
  -V(xc)+E(xc)   XCENC  =         0.00340173
  PAW double counting   =         0.00756276       -0.00757288
  entropy T*S    EENTRO =         0.00000000
  eigenvalues    EBANDS =        -0.06712911
  ---------------------------------------------------
  free energy    TOTEN  =        -0.32065662 eV

  energy without entropy =       -0.32065662


----------------------------------------- Iteration    3(  20)  ---------------------------------------


   POT+DIJ:  cpu time    0.4649: real time    0.4685
    HAMIL1:  cpu time    3.9574: real time    3.9979
    LRDIAG:  cpu time    0.8019: real time    0.8064
    LRDIIS:  cpu time   15.4786: real time   15.6137
    LRDIAG:  cpu time    0.6849: real time    0.6884
    MIXING:  cpu time    0.0110: real time    0.0114
    --------------------------------------------
      LOOP:  cpu time   22.6456: real time   22.8522

 Broyden mixing:
  rms(total) = 0.38044E-05    rms(broyden)= 0.38031E-05
  rms(prec ) = 0.44757E-05
  weight for this iteration     100.00

 eigenvalues of (default mixing * dielectric matrix)
  average eigenvalue GAMMA=   2.2948
  7.9592  7.2963  4.2632  3.7122  2.5777  2.5777  1.8243  1.8243  1.3297  1.3297
  1.0910  1.0063  0.9816  0.9131  0.5746  0.7387  0.7266  0.5807

 Free energy of the ion-electron system (eV)
  ---------------------------------------------------
  -Hartree energ DENC   =        -0.25691963
  -V(xc)+E(xc)   XCENC  =         0.00340174
  PAW double counting   =         0.00756287       -0.00757302
  entropy T*S    EENTRO =         0.00000000
  eigenvalues    EBANDS =        -0.06711841
  ---------------------------------------------------
  free energy    TOTEN  =        -0.32064646 eV

  energy without entropy =       -0.32064646


----------------------------------------- Iteration    3(  21)  ---------------------------------------


   POT+DIJ:  cpu time    0.4699: real time    0.4717
    HAMIL1:  cpu time    3.9304: real time    3.9696
    LRDIAG:  cpu time    0.7179: real time    0.7229
    LRDIIS:  cpu time   15.8526: real time   15.9948
    LRDIAG:  cpu time    0.7119: real time    0.7155
    MIXING:  cpu time    0.0120: real time    0.0121
    --------------------------------------------
      LOOP:  cpu time   22.9455: real time   23.1547

 Broyden mixing:
  rms(total) = 0.24617E-05    rms(broyden)= 0.24614E-05
  rms(prec ) = 0.28992E-05
  weight for this iteration     100.00

 eigenvalues of (default mixing * dielectric matrix)
  average eigenvalue GAMMA=   2.3733
  8.2579  7.6886  4.8005  3.7627  2.8477  2.8477  2.0902  2.0902  1.6521  1.3229
  1.2361  1.0104  0.9799  0.9799  0.9095  0.5746  0.7387  0.7227  0.5803

 Free energy of the ion-electron system (eV)
  ---------------------------------------------------
  -Hartree energ DENC   =        -0.25691883
  -V(xc)+E(xc)   XCENC  =         0.00340167
  PAW double counting   =         0.00756328       -0.00757343
  entropy T*S    EENTRO =         0.00000000
  eigenvalues    EBANDS =        -0.06712082
  ---------------------------------------------------
  free energy    TOTEN  =        -0.32064812 eV

  energy without entropy =       -0.32064812


----------------------------------------- Iteration    3(  22)  ---------------------------------------


   POT+DIJ:  cpu time    0.4689: real time    0.4737
    HAMIL1:  cpu time    3.9354: real time    3.9716
    LRDIAG:  cpu time    0.7269: real time    0.7314
    LRDIIS:  cpu time   15.5196: real time   15.6394
    LRDIAG:  cpu time    0.6829: real time    0.6865
    MIXING:  cpu time    0.0140: real time    0.0140
    --------------------------------------------
      LOOP:  cpu time   22.6646: real time   22.8514

 Broyden mixing:
  rms(total) = 0.11398E-05    rms(broyden)= 0.11397E-05
  rms(prec ) = 0.12819E-05
  weight for this iteration     100.00

 eigenvalues of (default mixing * dielectric matrix)
  average eigenvalue GAMMA=   2.4012
  8.6513  7.7398  5.1713  3.9029  2.9729  2.9729  2.2017  2.2017  1.5689  1.5689
  1.4080  1.1907  0.9855  0.9855  0.9733  0.9129  0.7387  0.5746  0.7227  0.5803

 Free energy of the ion-electron system (eV)
  ---------------------------------------------------
  -Hartree energ DENC   =        -0.25691988
  -V(xc)+E(xc)   XCENC  =         0.00340152
  PAW double counting   =         0.00756365       -0.00757381
  entropy T*S    EENTRO =         0.00000000
  eigenvalues    EBANDS =        -0.06712080
  ---------------------------------------------------
  free energy    TOTEN  =        -0.32064932 eV

  energy without entropy =       -0.32064932


----------------------------------------- Iteration    3(  23)  ---------------------------------------


   POT+DIJ:  cpu time    0.5689: real time    0.5733
    HAMIL1:  cpu time    3.9534: real time    3.9909
    LRDIAG:  cpu time    0.7219: real time    0.7258
    LRDIIS:  cpu time   15.5826: real time   15.7217
    LRDIAG:  cpu time    0.7129: real time    0.7168
    MIXING:  cpu time    0.0130: real time    0.0132
    --------------------------------------------
      LOOP:  cpu time   22.8075: real time   23.0141

 Broyden mixing:
  rms(total) = 0.59828E-06    rms(broyden)= 0.59810E-06
  rms(prec ) = 0.65775E-06
  weight for this iteration     100.00

 eigenvalues of (default mixing * dielectric matrix)
  average eigenvalue GAMMA=   2.4470
  9.0963  7.7712  5.6119  4.2610  3.0886  3.0886  2.2840  2.2840  1.9962  1.6798
  1.3004  1.3004  1.1428  0.9877  0.9877  0.9784  0.9127  0.5746  0.7387  0.7227
  0.5803

 Free energy of the ion-electron system (eV)
  ---------------------------------------------------
  -Hartree energ DENC   =        -0.25691988
  -V(xc)+E(xc)   XCENC  =         0.00340147
  PAW double counting   =         0.00756320       -0.00757334
  entropy T*S    EENTRO =         0.00000000
  eigenvalues    EBANDS =        -0.06711866
  ---------------------------------------------------
  free energy    TOTEN  =        -0.32064721 eV

  energy without entropy =       -0.32064721


------------------------ aborting loop because EDIFF is reached ----------------------------------------


 change of polarisation eV/A/(eV/A) component  3 :    -0.007     0.002     0.629
 dielectric tensor                  component  3 :    -0.003     0.001     1.259


--------------------------------------------------------------------------------------------------------


    FORLOC:  cpu time    0.0150: real time    0.0154
    FORNL :  cpu time    4.3873: real time    4.4059
    STRESS:  cpu time   18.2922: real time   18.4476
    FORCOR:  cpu time    0.1970: real time    0.1991
    OFIELD:  cpu time    0.0010: real time    0.0003

  Hirshfeld charges:
            ion         q(e)     
   ------------------------------
      1     Mo          0.374
      2     Mo          0.374
      3     S          -0.186
      4     S          -0.187
      5     S          -0.187
      6     S          -0.186

  Tkatchenko/Scheffler method for vdW energy calculation
  ---------------------------------------------------------------------------------------------

  Parameters of vdW forcefield:
            C6ts              R0ts           ALPHAts        RELVOL
            (au)              (au)            (au)                
   ---------------------------------------------------------------
   Mo       1059.766          4.121         89.744          1.015
   Mo       1059.766          4.121         89.744          1.015
   S         136.628          3.868         19.791          1.010
   S         133.851          3.854         19.589          0.999
   S         133.851          3.854         19.589          0.999
   S         136.628          3.868         19.791          1.010
  Edisp (eV):   -1.55026
    FORVDW:  cpu time    1.9477: real time    1.9581
    FORLOC:  cpu time    0.0140: real time    0.0144
    FORNL :  cpu time    4.3933: real time    4.4089
    STRESS:  cpu time   18.2432: real time   18.3681
    FORCOR:  cpu time    0.1850: real time    0.1872
    OFIELD:  cpu time    0.0010: real time    0.0003

  Hirshfeld charges:
            ion         q(e)     
   ------------------------------
      1     Mo          0.374
      2     Mo          0.374
      3     S          -0.186
      4     S          -0.187
      5     S          -0.187
      6     S          -0.186

  Tkatchenko/Scheffler method for vdW energy calculation
  ---------------------------------------------------------------------------------------------

  Parameters of vdW forcefield:
            C6ts              R0ts           ALPHAts        RELVOL
            (au)              (au)            (au)                
   ---------------------------------------------------------------
   Mo       1059.766          4.121         89.744          1.015
   Mo       1059.766          4.121         89.744          1.015
   S         136.628          3.868         19.791          1.010
   S         133.851          3.854         19.589          0.999
   S         133.851          3.854         19.589          0.999
   S         136.628          3.868         19.791          1.010
  Edisp (eV):   -1.55026
    FORVDW:  cpu time    1.9417: real time    1.9501
    FORNLD:  cpu time   15.3177: real time   15.4854

 PIEZOELECTRIC TENSOR FIELD DIRECTION 3  (e Angst)
 -----------------------------------------------------------------------------
     0.00127  0.00000  0.00000           ( -0.00000  0.00000  0.00000)
     0.00000  0.00127  0.00000           (  0.00000 -0.00000  0.00000)
    -0.00000  0.00000 -0.00325           (  0.00000  0.00000  0.00001)

 PIEZOELECTRIC TENSOR FIELD DIRECTION 3  (C/m^2)
 -----------------------------------------------------------------------------
     0.00005  0.00000  0.00000
     0.00000  0.00005  0.00000
    -0.00000  0.00000 -0.00012


      POSITION         DIRECTION 3           BORN EFFECTIVE CHARGE    (rigid.aug.   ionic)
 -----------------------------------------------------------------------------------------
     -0.00000      0.91916     21.92500    -0.00000 -0.00000 -4.69495 (  0.17439 14.00000)
      1.59203      1.83832     28.07500     0.00000 -0.00000 -4.69516 (  0.17439 14.00000)
      1.59203      1.83832     23.48856     0.00000  0.00000  0.05121 (  0.66110  6.00000)
      1.59203      1.83832     20.36144    -0.00000 -0.00000  0.16482 (  0.66041  6.00000)
     -0.00000      0.91916     29.63856     0.00000 -0.00000  0.15935 (  0.66041  6.00000)
     -0.00000      0.91916     26.51144    -0.00000  0.00000  0.04129 (  0.66110  6.00000)
 -----------------------------------------------------------------------------------------
    total drift (improves with k-points):   0.00000 -0.00000 -8.97344




--------------------------------------------------------------------------------------------------------


  LATTYP: Found a hexagonal cell.
 ALAT       =     3.1840664647
 C/A-ratio  =    15.7031897903
  
  Lattice vectors:
  
 A1 = (   3.1840664647,   0.0000000000,   0.0000000000)
 A2 = (  -1.5920332323,   2.7574824458,   0.0000000000)
 A3 = (   0.0000000000,   0.0000000000,  50.0000000000)


Analysis of symmetry for initial positions (statically):
=====================================================================
 Subroutine PRICEL returns:
 Original cell was already a primitive cell.
 

 Routine SETGRP: Setting up the symmetry group for a 
 hexagonal supercell.


 Subroutine GETGRP returns: Found 12 space group operations
 (whereof  4 operations were pure point group operations)
 out of a pool of 24 trial point group operations.


The static configuration has the point symmetry C_2h.
 The point group associated with its full space group is D_3d.


Analysis of symmetry for dynamics (positions and initial velocities):
=====================================================================
 Subroutine PRICEL returns:
 Original cell was already a primitive cell.
 

 Routine SETGRP: Setting up the symmetry group for a 
 hexagonal supercell.


 Subroutine GETGRP returns: Found 12 space group operations
 (whereof  4 operations were pure point group operations)
 out of a pool of 24 trial point group operations.


The dynamic configuration has the point symmetry C_2h.
 The point group associated with its full space group is D_3d.


 Subroutine INISYM returns: Found 12 space group operations
 (whereof  4 operations are pure point group operations),
 and found     1 'primitive' translations



 MACROSCOPIC STATIC DIELECTRIC TENSOR (including local field effects in DFT)
 ------------------------------------------------------
           4.516480     0.000000     0.000000
          -0.000000     4.516480    -0.000000
          -0.000000     0.000000     1.259187
 ------------------------------------------------------



--------------------------------------------------------------------------------------------------------


  LATTYP: Found a hexagonal cell.
 ALAT       =     3.1840664647
 C/A-ratio  =    15.7031897903
  
  Lattice vectors:
  
 A1 = (   3.1840664647,   0.0000000000,   0.0000000000)
 A2 = (  -1.5920332323,   2.7574824458,   0.0000000000)
 A3 = (   0.0000000000,   0.0000000000,  50.0000000000)


Analysis of symmetry for initial positions (statically):
=====================================================================
 Subroutine PRICEL returns:
 Original cell was already a primitive cell.
 

 Routine SETGRP: Setting up the symmetry group for a 
 hexagonal supercell.


 Subroutine GETGRP returns: Found 12 space group operations
 (whereof  4 operations were pure point group operations)
 out of a pool of 24 trial point group operations.


The static configuration has the point symmetry C_2h.
 The point group associated with its full space group is D_3d.


Analysis of symmetry for dynamics (positions and initial velocities):
=====================================================================
 Subroutine PRICEL returns:
 Original cell was already a primitive cell.
 

 Routine SETGRP: Setting up the symmetry group for a 
 hexagonal supercell.


 Subroutine GETGRP returns: Found 12 space group operations
 (whereof  4 operations were pure point group operations)
 out of a pool of 24 trial point group operations.


The dynamic configuration has the point symmetry C_2h.
 The point group associated with its full space group is D_3d.


 Subroutine INISYM returns: Found 12 space group operations
 (whereof  4 operations are pure point group operations),
 and found     1 'primitive' translations



--------------------------------------------------------------------------------------------------------




 MACROSCOPIC STATIC DIELECTRIC TENSOR (including local field effects in DFT)
 ------------------------------------------------------
           4.516480     0.000000     0.000000
          -0.000000     4.516480    -0.000000
          -0.000000     0.000000     1.259187
 ------------------------------------------------------


 PIEZOELECTRIC TENSOR  for field in x, y, z        (e  Angst)
          XX          YY          ZZ          XY          YZ          ZX
  --------------------------------------------------------------------------------
  x    -0.00379     0.00453    -0.00045     0.00000     0.00016     0.00000
  y    -0.00433     0.00759    -0.00007     0.00000     0.00014     0.00000
  z     0.00127     0.00127    -0.00325     0.00000     0.00000     0.00000

 PIEZOELECTRIC TENSOR  for field in x, y, z        (C/m^2)
          XX          YY          ZZ          XY          YZ          ZX
  --------------------------------------------------------------------------------
  x     0.00000     0.00000     0.00000     0.00000     0.00000     0.00000
  y     0.00000     0.00000     0.00000     0.00000     0.00000     0.00000
  z     0.00000     0.00000     0.00000     0.00000     0.00000     0.00000
 
 BORN EFFECTIVE CHARGES (in e, cummulative output)
 -------------------------------------------------
 ion    1
    1    -1.00379    -0.00019     0.00003
    2     0.00000    -1.00443     0.00001
    3    -0.00000    -0.00000    -4.69495
 ion    2
    1    -1.00379     0.00019    -0.00003
    2     0.00000    -1.00315    -0.00000
    3     0.00000    -0.00000    -4.69516
 ion    3
    1     0.47824    -0.00146     0.00015
    2    -0.00000     0.47865     0.00085
    3     0.00000     0.00000     0.05121
 ion    4
    1     0.50105    -0.00140    -0.00008
    2    -0.00000     0.50143    -0.00057
    3    -0.00000    -0.00000     0.16482
 ion    5
    1     0.50105     0.00140     0.00008
    2    -0.00000     0.50067     0.00057
    3     0.00000    -0.00000     0.15935
 ion    6
    1     0.47824     0.00146    -0.00015
    2     0.00000     0.47783    -0.00085
    3    -0.00000     0.00000     0.04129


--------------------------------------------------------------------------------------------------------


 writing wavefunctions
     LOOP+:  cpu time 5027.9726: real time 5087.7810
    4ORBIT:  cpu time    0.0000: real time    0.0000
 BZINTS: Fermi energy: -2.326173; 52.000000 electrons
         Band energy:-991.175046;  BLOECHL correction:  0.000000

 total amount of memory used by VASP on root node   206069. kBytes
========================================================================

   base      :      30000. kBytes
   nonl-proj :     157612. kBytes
   fftplans  :       2116. kBytes
   grid      :       8000. kBytes
   one-center:        484. kBytes
   wavefun   :       7857. kBytes
 
  
  
 General timing and accounting informations for this job:
 ========================================================
  
                  Total CPU time used (sec):     5044.534
                            User time (sec):     4906.812
                          System time (sec):      137.722
                         Elapsed time (sec):     5106.173
  
                   Maximum memory used (kb):      585832.
                   Average memory used (kb):           0.
  
                          Minor page faults:      6689314
                          Major page faults:           13
                 Voluntary context switches:        10076
