unknown system                          
           1
     3.184066    0.000000    0.000000
    -1.592033    2.757482    0.000000
     0.000000    0.000000   50.000000
   Mo   S 
   2   4
Direct configuration=     1
   0.16666667  0.33333333  0.43850000
   0.83333333  0.66666667  0.56150000
   0.83333333  0.66666667  0.46977113
   0.83333333  0.66666667  0.40722887
   0.16666667  0.33333333  0.59277113
   0.16666667  0.33333333  0.53022887
