  18  18   0   0
  0.3031821E+02  0.3550076E-09  0.3550076E-09  0.5000000E-08  0.5000000E-15
  1.000000000000000E-004
  CAR 
 unknown system                          
     17.56387325    -72.12054603  301      6.05437277      1.00000000
    -72.121  0.0000E+00  0.0000E+00
    -71.822  0.0000E+00  0.0000E+00
    -71.523  0.0000E+00  0.0000E+00
    -71.224  0.0000E+00  0.0000E+00
    -70.925  0.0000E+00  0.0000E+00
    -70.626  0.0000E+00  0.0000E+00
    -70.327  0.0000E+00  0.0000E+00
    -70.028  0.0000E+00  0.0000E+00
    -69.729  0.0000E+00  0.0000E+00
    -69.430  0.0000E+00  0.0000E+00
    -69.131  0.0000E+00  0.0000E+00
    -68.832  0.0000E+00  0.0000E+00
    -68.533  0.0000E+00  0.0000E+00
    -68.234  0.0000E+00  0.0000E+00
    -67.935  0.0000E+00  0.1200E+02
    -67.636  0.0000E+00  0.1200E+02
    -67.337  0.0000E+00  0.1200E+02
    -67.038  0.0000E+00  0.1200E+02
    -66.739  0.0000E+00  0.1200E+02
    -66.441  0.0000E+00  0.1200E+02
    -66.142  0.0000E+00  0.1200E+02
    -65.843  0.0000E+00  0.1200E+02
    -65.544  0.0000E+00  0.1200E+02
    -65.245  0.0000E+00  0.1200E+02
    -64.946  0.0000E+00  0.1200E+02
    -64.647  0.0000E+00  0.1200E+02
    -64.348  0.0000E+00  0.1200E+02
    -64.049  0.0000E+00  0.1200E+02
    -63.750  0.0000E+00  0.1200E+02
    -63.451  0.0000E+00  0.1200E+02
    -63.152  0.0000E+00  0.1200E+02
    -62.853  0.0000E+00  0.1200E+02
    -62.554  0.0000E+00  0.1200E+02
    -62.255  0.0000E+00  0.1200E+02
    -61.956  0.0000E+00  0.1200E+02
    -61.657  0.0000E+00  0.1200E+02
    -61.358  0.0000E+00  0.1200E+02
    -61.059  0.0000E+00  0.1200E+02
    -60.761  0.0000E+00  0.1200E+02
    -60.462  0.0000E+00  0.1200E+02
    -60.163  0.0000E+00  0.1200E+02
    -59.864  0.0000E+00  0.1200E+02
    -59.565  0.0000E+00  0.1200E+02
    -59.266  0.0000E+00  0.1200E+02
    -58.967  0.0000E+00  0.1200E+02
    -58.668  0.0000E+00  0.1200E+02
    -58.369  0.0000E+00  0.1200E+02
    -58.070  0.0000E+00  0.1200E+02
    -57.771  0.0000E+00  0.1200E+02
    -57.472  0.0000E+00  0.1200E+02
    -57.173  0.0000E+00  0.1200E+02
    -56.874  0.0000E+00  0.1200E+02
    -56.575  0.0000E+00  0.1200E+02
    -56.276  0.0000E+00  0.1200E+02
    -55.977  0.0000E+00  0.1200E+02
    -55.678  0.0000E+00  0.1200E+02
    -55.379  0.0000E+00  0.1200E+02
    -55.081  0.0000E+00  0.1200E+02
    -54.782  0.0000E+00  0.1200E+02
    -54.483  0.0000E+00  0.1200E+02
    -54.184  0.0000E+00  0.1200E+02
    -53.885  0.0000E+00  0.1200E+02
    -53.586  0.0000E+00  0.1200E+02
    -53.287  0.0000E+00  0.1200E+02
    -52.988  0.0000E+00  0.1200E+02
    -52.689  0.0000E+00  0.1200E+02
    -52.390  0.0000E+00  0.1200E+02
    -52.091  0.0000E+00  0.1200E+02
    -51.792  0.0000E+00  0.1200E+02
    -51.493  0.0000E+00  0.1200E+02
    -51.194  0.0000E+00  0.1200E+02
    -50.895  0.0000E+00  0.1200E+02
    -50.596  0.0000E+00  0.1200E+02
    -50.297  0.0000E+00  0.1200E+02
    -49.998  0.0000E+00  0.1200E+02
    -49.699  0.0000E+00  0.1200E+02
    -49.400  0.0000E+00  0.1200E+02
    -49.102  0.0000E+00  0.1200E+02
    -48.803  0.0000E+00  0.1200E+02
    -48.504  0.0000E+00  0.1200E+02
    -48.205  0.0000E+00  0.1200E+02
    -47.906  0.0000E+00  0.1200E+02
    -47.607  0.0000E+00  0.1200E+02
    -47.308  0.0000E+00  0.1200E+02
    -47.009  0.0000E+00  0.1200E+02
    -46.710  0.0000E+00  0.1200E+02
    -46.411  0.0000E+00  0.1200E+02
    -46.112  0.0000E+00  0.1200E+02
    -45.813  0.0000E+00  0.1200E+02
    -45.514  0.0000E+00  0.1200E+02
    -45.215  0.0000E+00  0.1200E+02
    -44.916  0.0000E+00  0.1200E+02
    -44.617  0.0000E+00  0.1200E+02
    -44.318  0.0000E+00  0.1200E+02
    -44.019  0.0000E+00  0.1200E+02
    -43.720  0.0000E+00  0.1200E+02
    -43.422  0.0000E+00  0.1200E+02
    -43.123  0.0000E+00  0.1200E+02
    -42.824  0.0000E+00  0.1200E+02
    -42.525  0.0000E+00  0.1200E+02
    -42.226  0.0000E+00  0.1200E+02
    -41.927  0.0000E+00  0.1200E+02
    -41.628  0.0000E+00  0.1200E+02
    -41.329  0.0000E+00  0.1200E+02
    -41.030  0.0000E+00  0.1200E+02
    -40.731  0.0000E+00  0.1200E+02
    -40.432  0.0000E+00  0.1200E+02
    -40.133  0.0000E+00  0.1200E+02
    -39.834  0.0000E+00  0.1200E+02
    -39.535  0.0000E+00  0.1200E+02
    -39.236  0.0000E+00  0.1200E+02
    -38.937  0.0000E+00  0.1200E+02
    -38.638  0.0000E+00  0.1200E+02
    -38.339  0.0000E+00  0.1200E+02
    -38.040  0.0000E+00  0.1200E+02
    -37.742  0.0000E+00  0.1200E+02
    -37.443  0.0000E+00  0.1200E+02
    -37.144  0.0000E+00  0.1200E+02
    -36.845  0.0000E+00  0.1200E+02
    -36.546  0.0000E+00  0.1200E+02
    -36.247  0.0000E+00  0.1200E+02
    -35.948  0.0000E+00  0.1200E+02
    -35.649  0.0000E+00  0.1200E+02
    -35.350  0.0000E+00  0.1200E+02
    -35.051  0.0000E+00  0.1200E+02
    -34.752  0.0000E+00  0.1200E+02
    -34.453  0.0000E+00  0.1200E+02
    -34.154  0.0000E+00  0.1200E+02
    -33.855  0.0000E+00  0.1200E+02
    -33.556  0.0000E+00  0.1200E+02
    -33.257  0.0000E+00  0.1200E+02
    -32.958  0.0000E+00  0.1200E+02
    -32.659  0.0000E+00  0.1200E+02
    -32.360  0.0000E+00  0.1200E+02
    -32.062  0.0000E+00  0.4800E+02
    -31.763  0.0000E+00  0.4800E+02
    -31.464  0.0000E+00  0.4800E+02
    -31.165  0.0000E+00  0.4800E+02
    -30.866  0.0000E+00  0.4800E+02
    -30.567  0.0000E+00  0.4800E+02
    -30.268  0.0000E+00  0.4800E+02
    -29.969  0.0000E+00  0.4800E+02
    -29.670  0.0000E+00  0.4800E+02
    -29.371  0.0000E+00  0.4800E+02
    -29.072  0.0000E+00  0.4800E+02
    -28.773  0.0000E+00  0.4800E+02
    -28.474  0.0000E+00  0.4800E+02
    -28.175  0.0000E+00  0.4800E+02
    -27.876  0.0000E+00  0.4800E+02
    -27.577  0.0000E+00  0.4800E+02
    -27.278  0.0000E+00  0.4800E+02
    -26.979  0.0000E+00  0.4800E+02
    -26.680  0.0000E+00  0.4800E+02
    -26.381  0.0000E+00  0.4800E+02
    -26.083  0.0000E+00  0.4800E+02
    -25.784  0.0000E+00  0.4800E+02
    -25.485  0.0000E+00  0.4800E+02
    -25.186  0.0000E+00  0.4800E+02
    -24.887  0.0000E+00  0.4800E+02
    -24.588  0.0000E+00  0.4800E+02
    -24.289  0.0000E+00  0.4800E+02
    -23.990  0.0000E+00  0.4800E+02
    -23.691  0.0000E+00  0.4800E+02
    -23.392  0.0000E+00  0.4800E+02
    -23.093  0.0000E+00  0.4800E+02
    -22.794  0.0000E+00  0.4800E+02
    -22.495  0.0000E+00  0.4800E+02
    -22.196  0.0000E+00  0.4800E+02
    -21.897  0.0000E+00  0.4800E+02
    -21.598  0.0000E+00  0.4800E+02
    -21.299  0.0000E+00  0.4800E+02
    -21.000  0.0000E+00  0.4800E+02
    -20.701  0.0000E+00  0.4800E+02
    -20.403  0.0000E+00  0.4800E+02
    -20.104  0.0000E+00  0.4800E+02
    -19.805  0.0000E+00  0.4800E+02
    -19.506  0.0000E+00  0.4800E+02
    -19.207  0.0000E+00  0.4800E+02
    -18.908  0.0000E+00  0.4800E+02
    -18.609  0.0000E+00  0.4800E+02
    -18.310  0.0000E+00  0.4800E+02
    -18.011  0.0000E+00  0.4800E+02
    -17.712  0.0000E+00  0.4800E+02
    -17.413  0.0000E+00  0.4800E+02
    -17.114  0.0000E+00  0.4800E+02
    -16.815  0.0000E+00  0.4800E+02
    -16.516  0.0000E+00  0.4800E+02
    -16.217  0.0000E+00  0.4800E+02
    -15.918  0.0000E+00  0.4800E+02
    -15.619  0.0000E+00  0.4800E+02
    -15.320  0.0000E+00  0.4800E+02
    -15.021  0.0000E+00  0.4800E+02
    -14.723  0.0000E+00  0.4800E+02
    -14.424  0.0000E+00  0.4800E+02
    -14.125  0.0000E+00  0.4800E+02
    -13.826  0.0000E+00  0.4800E+02
    -13.527  0.0000E+00  0.4800E+02
    -13.228  0.0000E+00  0.4800E+02
    -12.929  0.0000E+00  0.4800E+02
    -12.630  0.0000E+00  0.4800E+02
    -12.331  0.0000E+00  0.4800E+02
    -12.032  0.0000E+00  0.4800E+02
    -11.733  0.0000E+00  0.4800E+02
    -11.434  0.0000E+00  0.4800E+02
    -11.135  0.0000E+00  0.4800E+02
    -10.836  0.0000E+00  0.4800E+02
    -10.537  0.0000E+00  0.4800E+02
    -10.238  0.0000E+00  0.4800E+02
     -9.939  0.0000E+00  0.4800E+02
     -9.640  0.0000E+00  0.4800E+02
     -9.341  0.0000E+00  0.4800E+02
     -9.043  0.0000E+00  0.4800E+02
     -8.744  0.0000E+00  0.4800E+02
     -8.445  0.0000E+00  0.4800E+02
     -8.146  0.0000E+00  0.4800E+02
     -7.847  0.0000E+00  0.4800E+02
     -7.548  0.0000E+00  0.4800E+02
     -7.249  0.0000E+00  0.4800E+02
     -6.950  0.3038E+01  0.4850E+02
     -6.651  0.3228E+01  0.4944E+02
     -6.352  0.3457E+01  0.5044E+02
     -6.053  0.5610E+01  0.5160E+02
     -5.754  0.8330E+01  0.5356E+02
     -5.455  0.1048E+02  0.5646E+02
     -5.156  0.1403E+02  0.6003E+02
     -4.857  0.1686E+02  0.6521E+02
     -4.558  0.1343E+02  0.7051E+02
     -4.259  0.0000E+00  0.7200E+02
     -3.960  0.0000E+00  0.7200E+02
     -3.661  0.0000E+00  0.7200E+02
     -3.362  0.0000E+00  0.7200E+02
     -3.064  0.0000E+00  0.7200E+02
     -2.765  0.0000E+00  0.7200E+02
     -2.466  0.0000E+00  0.7200E+02
     -2.167  0.0000E+00  0.7200E+02
     -1.868  0.0000E+00  0.7200E+02
     -1.569  0.0000E+00  0.7200E+02
     -1.270  0.0000E+00  0.7200E+02
     -0.971  0.0000E+00  0.7200E+02
     -0.672  0.0000E+00  0.7200E+02
     -0.373  0.0000E+00  0.7200E+02
     -0.074  0.2417E+01  0.7213E+02
      0.225  0.6429E+01  0.7354E+02
      0.524  0.8428E+01  0.7573E+02
      0.823  0.9848E+01  0.7910E+02
      1.122  0.2596E+02  0.8216E+02
      1.421  0.1209E+02  0.8745E+02
      1.720  0.9599E+01  0.9083E+02
      2.019  0.1214E+02  0.9337E+02
      2.318  0.1273E+02  0.9814E+02
      2.616  0.1016E+02  0.1033E+03
      2.915  0.1259E+02  0.1067E+03
      3.214  0.1558E+02  0.1113E+03
      3.513  0.1523E+02  0.1163E+03
      3.812  0.9881E+01  0.1198E+03
      4.111  0.2784E+02  0.1250E+03
      4.410  0.1795E+02  0.1325E+03
      4.709  0.1913E+02  0.1391E+03
      5.008  0.1678E+02  0.1434E+03
      5.307  0.2593E+02  0.1477E+03
      5.606  0.1144E+02  0.1537E+03
      5.905  0.2274E+01  0.1559E+03
      6.204  0.0000E+00  0.1560E+03
      6.503  0.0000E+00  0.1560E+03
      6.802  0.0000E+00  0.1560E+03
      7.101  0.5976E+01  0.1565E+03
      7.400  0.1292E+02  0.1597E+03
      7.699  0.1503E+02  0.1656E+03
      7.998  0.2944E+02  0.1743E+03
      8.296  0.1681E+02  0.1794E+03
      8.595  0.1757E+02  0.1852E+03
      8.894  0.8939E+01  0.1893E+03
      9.193  0.1072E+02  0.1921E+03
      9.492  0.1944E+02  0.1971E+03
      9.791  0.1400E+02  0.2019E+03
     10.090  0.1094E+02  0.2053E+03
     10.389  0.6711E+01  0.2077E+03
     10.688  0.7974E+01  0.2099E+03
     10.987  0.5786E+01  0.2116E+03
     11.286  0.4983E+01  0.2131E+03
     11.585  0.6584E+01  0.2148E+03
     11.884  0.8738E+01  0.2171E+03
     12.183  0.9254E+01  0.2200E+03
     12.482  0.4709E+01  0.2219E+03
     12.781  0.1488E+01  0.2227E+03
     13.080  0.5435E+01  0.2232E+03
     13.379  0.7685E+00  0.2239E+03
     13.678  0.0000E+00  0.2240E+03
     13.976  0.0000E+00  0.2240E+03
     14.275  0.0000E+00  0.2240E+03
     14.574  0.0000E+00  0.2240E+03
     14.873  0.0000E+00  0.2240E+03
     15.172  0.0000E+00  0.2240E+03
     15.471  0.0000E+00  0.2240E+03
     15.770  0.0000E+00  0.2240E+03
     16.069  0.0000E+00  0.2240E+03
     16.368  0.0000E+00  0.2240E+03
     16.667  0.0000E+00  0.2240E+03
     16.966  0.0000E+00  0.2240E+03
     17.265  0.0000E+00  0.2240E+03
     17.564  0.0000E+00  0.2240E+03
