       N       E                     dE             d eps       ncg     rms          rms(c)
DAV:   1     0.115365231218E+04    0.11537E+04   -0.61575E+04  9996   0.839E+02
DAV:   2    -0.447693237291E+02   -0.11984E+04   -0.11640E+04 12572   0.279E+02
DAV:   3    -0.135990060742E+03   -0.91221E+02   -0.89727E+02 11032   0.762E+01
DAV:   4    -0.139773277633E+03   -0.37832E+01   -0.37640E+01 13104   0.173E+01
DAV:   5    -0.139828469776E+03   -0.55192E-01   -0.55153E-01 11004   0.190E+00    0.191E+02
DAV:   6    -0.131303939891E+03    0.85245E+01   -0.39796E+01 10192   0.152E+01    0.164E+02
DAV:   7    -0.182289769523E+03   -0.50986E+02   -0.19420E+02 10556   0.333E+01    0.195E+02
DAV:   8    -0.126955424813E+03    0.55334E+02   -0.13946E+02  9772   0.260E+01    0.502E+00
DAV:   9    -0.128978322629E+03   -0.20229E+01   -0.21766E+01 11340   0.848E+00    0.134E+01
DAV:  10    -0.129024364508E+03   -0.46042E-01   -0.64684E-01 12544   0.171E+00    0.112E+01
DAV:  11    -0.129006539534E+03    0.17825E-01   -0.14650E-02 12068   0.325E-01    0.815E+00
DAV:  12    -0.128986226231E+03    0.20313E-01   -0.98623E-03 11984   0.342E-01    0.496E+00
DAV:  13    -0.128956092128E+03    0.30134E-01   -0.55156E-02 11116   0.675E-01    0.166E+00
DAV:  14    -0.128956139030E+03   -0.46902E-04   -0.76862E-03 10444   0.233E-01    0.131E+00
DAV:  15    -0.128954483265E+03    0.16558E-02   -0.28835E-03 12320   0.135E-01    0.788E-01
DAV:  16    -0.128953988903E+03    0.49436E-03   -0.51771E-04 13804   0.931E-02    0.407E-01
DAV:  17    -0.128953946167E+03    0.42736E-04   -0.23567E-04 10276   0.328E-02    0.258E-01
DAV:  18    -0.128953779436E+03    0.16673E-03   -0.13158E-04 12040   0.296E-02    0.169E-01
DAV:  19    -0.128953723953E+03    0.55483E-04   -0.12310E-04 11956   0.276E-02    0.837E-02
DAV:  20    -0.128953744284E+03   -0.20331E-04   -0.14959E-04 11928   0.293E-02    0.400E-02
DAV:  21    -0.128953821078E+03   -0.76794E-04   -0.27502E-05 12320   0.105E-02    0.219E-02
DAV:  22    -0.128953953222E+03   -0.13214E-03   -0.16813E-05 11116   0.904E-03    0.206E-02
DAV:  23    -0.128954014209E+03   -0.60987E-04   -0.62969E-06 10780   0.665E-03    0.178E-02
DAV:  24    -0.128954051777E+03   -0.37568E-04   -0.55973E-06 11760   0.476E-03    0.100E-02
DAV:  25    -0.128954057769E+03   -0.59915E-05   -0.46164E-07 10640   0.159E-03    0.694E-03
DAV:  26    -0.128954060747E+03   -0.29783E-05   -0.21678E-07 11228   0.106E-03    0.444E-03
DAV:  27    -0.128954061358E+03   -0.61083E-06   -0.64351E-08 11256   0.678E-04    0.184E-03
DAV:  28    -0.128954061476E+03   -0.11795E-06   -0.17966E-08  9100   0.316E-04    0.798E-04
DAV:  29    -0.128954061492E+03   -0.16549E-07   -0.28169E-09  8092   0.152E-04    0.401E-04
DAV:  30    -0.128954061493E+03   -0.66939E-09   -0.14503E-09  7980   0.101E-04
   1 F= -.13472955E+03 E0= -.13472955E+03  d E =0.000000E+00
 Linear response reoptimize wavefunctions
DAV:   1    -0.128954061493E+03    0.57755E+01   -0.72838E-10  7560   0.894E-05
DAV:   2    -0.128954061492E+03    0.61846E-10   -0.19425E-10  6916   0.446E-05
 Linear response G [H, r] |phi>, progress :
  Direction:   1
       N       E                     dE             d eps       ncg     rms
RMM:   1    -0.760600490528E+03   -0.76060E+03   -0.88981E+03 11234   0.524E+02
RMM:   2    -0.803028242561E+03   -0.42428E+02   -0.10715E+03 17255   0.503E+01
RMM:   3    -0.812040239141E+03   -0.90120E+01   -0.10913E+02 18204   0.135E+01
RMM:   4    -0.813023512945E+03   -0.98327E+00   -0.62806E+00 19919   0.302E+00
RMM:   5    -0.813100164120E+03   -0.76651E-01   -0.77406E-01 20568   0.889E-01
RMM:   6    -0.813107200027E+03   -0.70359E-02   -0.47553E-02 21959   0.246E-01
RMM:   7    -0.813107923449E+03   -0.72342E-03   -0.69088E-03 22383   0.857E-02
RMM:   8    -0.813108070514E+03   -0.14706E-03    0.10965E-03 23013   0.310E-02
RMM:   9    -0.813108440457E+03   -0.36994E-03   -0.19167E-03 23449   0.173E-02
RMM:  10    -0.813108231044E+03    0.20941E-03    0.34286E-04 23680   0.129E-02
RMM:  11    -0.813108353302E+03   -0.12226E-03   -0.86551E-04 23643   0.119E-02
RMM:  12    -0.813108325782E+03    0.27521E-04   -0.58677E-04 23514   0.116E-02
RMM:  13    -0.813108276777E+03    0.49005E-04   -0.96144E-05 23461   0.115E-02
 Linear response G [H, r] |phi>, progress :
  Direction:   2
       N       E                     dE             d eps       ncg     rms
RMM:   1    -0.734413690973E+03   -0.73441E+03   -0.92318E+03 11222   0.521E+02
RMM:   2    -0.847300446537E+03   -0.11289E+03   -0.11546E+03 17181   0.503E+01
RMM:   3    -0.858643007762E+03   -0.11343E+02   -0.11777E+02 18170   0.134E+01
RMM:   4    -0.859882353665E+03   -0.12393E+01   -0.62636E+00 19845   0.299E+00
RMM:   5    -0.859934300923E+03   -0.51947E-01   -0.70149E-01 20580   0.832E-01
RMM:   6    -0.859948743934E+03   -0.14443E-01   -0.30745E-01 21991   0.233E-01
RMM:   7    -0.859929592951E+03    0.19151E-01   -0.82279E-02 22451   0.775E-02
RMM:   8    -0.859931531947E+03   -0.19390E-02   -0.97210E-02 23060   0.305E-02
RMM:   9    -0.859929438786E+03    0.20932E-02   -0.75992E-02 23497   0.187E-02
RMM:  10    -0.859930178961E+03   -0.74018E-03   -0.83347E-02 23784   0.154E-02
RMM:  11    -0.859930060042E+03    0.11892E-03   -0.82156E-02 23716   0.147E-02
RMM:  12    -0.859930740806E+03   -0.68076E-03   -0.88964E-02 23619   0.145E-02
 Linear response G [H, r] |phi>, progress :
  Direction:   3
       N       E                     dE             d eps       ncg     rms
RMM:   1    -0.785766797537E+03   -0.78577E+03   -0.96594E+03 11332   0.506E+02
RMM:   2    -0.838268600033E+03   -0.52502E+02   -0.10666E+03 16907   0.482E+01
RMM:   3    -0.849460904104E+03   -0.11192E+02   -0.10522E+02 18262   0.124E+01
RMM:   4    -0.850127488302E+03   -0.66658E+00   -0.71395E+00 20082   0.291E+00
RMM:   5    -0.850181308201E+03   -0.53820E-01   -0.78690E-01 20421   0.874E-01
RMM:   6    -0.850189122387E+03   -0.78142E-02   -0.77728E-02 21470   0.251E-01
RMM:   7    -0.850189917050E+03   -0.79466E-03   -0.11301E-02 21942   0.864E-02
RMM:   8    -0.850190010746E+03   -0.93697E-04   -0.14453E-03 22662   0.299E-02
RMM:   9    -0.850190022369E+03   -0.11623E-04   -0.50135E-04 23016   0.152E-02
RMM:  10    -0.850190025623E+03   -0.32543E-05   -0.35235E-04 23181   0.106E-02
RMM:  11    -0.850190019791E+03    0.58322E-05   -0.27732E-04 23134   0.968E-03
RMM:  12    -0.850190020560E+03   -0.76930E-06   -0.28055E-04 22977   0.940E-03
RMM:  13    -0.850190017235E+03    0.33251E-05   -0.24667E-04 22946   0.934E-03
 Linear response to external field (no local field effect), progress :
  Direction:   1
       N       E                     dE             d eps       ncg     rms          rms(c)
RMM:   1    -0.150846182919E+02   -0.15085E+02   -0.87339E+01 21761   0.777E+00
RMM:   2    -0.235097142058E+02   -0.84251E+01   -0.13764E+00 18145   0.218E+00
RMM:   3    -0.235699087783E+02   -0.60195E-01   -0.11537E-01 19113   0.481E-01
RMM:   4    -0.235728848397E+02   -0.29761E-02   -0.84081E-03 19943   0.120E-01
RMM:   5    -0.235730585425E+02   -0.17370E-03   -0.71052E-04 19728   0.337E-02
RMM:   6    -0.235730704727E+02   -0.11930E-04   -0.61650E-05 18989   0.981E-03
RMM:   7    -0.235730714593E+02   -0.98657E-06   -0.65520E-06 18500   0.312E-03
RMM:   8    -0.235730715314E+02   -0.72082E-07   -0.18023E-06 18452   0.114E-03
RMM:   9    -0.235730715343E+02   -0.29407E-08   -0.13370E-06 18303   0.616E-04
RMM:  10    -0.235730715336E+02    0.74139E-09   -0.12756E-06 18039   0.461E-04
RMM:  11    -0.235730715337E+02   -0.17146E-09   -0.12714E-06 16763   0.421E-04
RMM:  12    -0.235730715327E+02    0.10502E-08   -0.12598E-06 15473   0.410E-04
RMM:  13    -0.235730715331E+02   -0.44417E-09   -0.12644E-06 14796   0.408E-04
 Linear response to external field (no local field effect), progress :
  Direction:   2
       N       E                     dE             d eps       ncg     rms          rms(c)
RMM:   1    -0.170276134529E+02   -0.17028E+02   -0.10093E+02 21466   0.801E+00
RMM:   2    -0.234824054124E+02   -0.64548E+01   -0.14267E+00 17998   0.220E+00
RMM:   3    -0.235445241160E+02   -0.62119E-01   -0.11864E-01 18749   0.497E-01
RMM:   4    -0.235476537468E+02   -0.31296E-02   -0.77900E-03 19990   0.120E-01
RMM:   5    -0.235478147148E+02   -0.16097E-03   -0.72838E-04 19511   0.350E-02
RMM:   6    -0.235478288915E+02   -0.14177E-04   -0.59758E-05 19209   0.100E-02
RMM:   7    -0.235478298720E+02   -0.98052E-06   -0.72558E-06 18497   0.326E-03
RMM:   8    -0.235478299654E+02   -0.93377E-07   -0.21172E-06 18465   0.118E-03
RMM:   9    -0.235478299690E+02   -0.36366E-08   -0.16473E-06 18178   0.650E-04
RMM:  10    -0.235478299715E+02   -0.25150E-08   -0.16145E-06 18025   0.485E-04
RMM:  11    -0.235478299701E+02    0.13591E-08   -0.15948E-06 16515   0.444E-04
RMM:  12    -0.235478299718E+02   -0.16250E-08   -0.16105E-06 15268   0.433E-04
RMM:  13    -0.235478299704E+02    0.13696E-08   -0.15965E-06 14526   0.431E-04
 Linear response to external field (no local field effect), progress :
  Direction:   3
       N       E                     dE             d eps       ncg     rms          rms(c)
RMM:   1    -0.116335862513E+02   -0.11634E+02   -0.56472E+01 20982   0.746E+00
RMM:   2    -0.143616762725E+02   -0.27281E+01   -0.11540E+00 17379   0.195E+00
RMM:   3    -0.144014850322E+02   -0.39809E-01   -0.92594E-02 18772   0.460E-01
RMM:   4    -0.144035789684E+02   -0.20939E-02   -0.64783E-03 19649   0.116E-01
RMM:   5    -0.144036947727E+02   -0.11580E-03   -0.60042E-04 19568   0.343E-02
RMM:   6    -0.144037051407E+02   -0.10368E-04   -0.50670E-05 18650   0.933E-03
RMM:   7    -0.144037058706E+02   -0.72990E-06   -0.66039E-06 18393   0.302E-03
RMM:   8    -0.144037059443E+02   -0.73667E-07   -0.22915E-06 18133   0.105E-03
RMM:   9    -0.144037059501E+02   -0.58235E-08   -0.19434E-06 17916   0.565E-04
RMM:  10    -0.144037059545E+02   -0.44018E-08   -0.19433E-06 16959   0.427E-04
RMM:  11    -0.144037059504E+02    0.41246E-08   -0.18985E-06 15625   0.394E-04
RMM:  12    -0.144037059564E+02   -0.60414E-08   -0.19581E-06 14539   0.387E-04
RMM:  13    -0.144037059491E+02    0.73086E-08   -0.18853E-06 13975   0.385E-04
 Linear response to external field, progress :
  Direction:   1
       N       E                     dE             d eps       ncg     rms          rms(c)
RMM:   1    -0.160282294987E+02   -0.16028E+02   -0.93853E+01 52589   0.778E+00
RMM:   2    -0.234970315624E+02   -0.74688E+01   -0.13855E+00 43946   0.214E+00    0.771E+00
RMM:   3    -0.230248921104E+02    0.47214E+00   -0.59276E-01 41654   0.185E+00    0.441E+00
RMM:   4    -0.235020631688E+02   -0.47717E+00   -0.44112E-01 39946   0.183E+00    0.114E+00
RMM:   5    -0.236789156893E+02   -0.17685E+00   -0.15122E-02 42087   0.435E-01    0.121E-01
RMM:   6    -0.236910096501E+02   -0.12094E-01   -0.72348E-03 44308   0.823E-02    0.730E-02
RMM:   7    -0.236977278386E+02   -0.67182E-02    0.69660E-03 43541   0.323E-02    0.311E-02
RMM:   8    -0.237030984937E+02   -0.53707E-02   -0.40278E-03 44078   0.131E-02    0.706E-03
RMM:   9    -0.237039909149E+02   -0.89242E-03   -0.24508E-04 43588   0.572E-03    0.310E-03
RMM:  10    -0.237044407065E+02   -0.44979E-03   -0.19022E-04 42415   0.264E-03    0.130E-03
RMM:  11    -0.237045851375E+02   -0.14443E-03   -0.94915E-05 44447   0.115E-03    0.519E-04
RMM:  12    -0.237046112278E+02   -0.26090E-04   -0.40918E-05 46165   0.588E-04    0.192E-04
RMM:  13    -0.237046127198E+02   -0.14921E-05   -0.12909E-05 43168   0.444E-04    0.634E-05
RMM:  14    -0.237046090141E+02    0.37057E-05   -0.96843E-06 42964   0.412E-04    0.265E-05
RMM:  15    -0.237046078629E+02    0.11513E-05   -0.82623E-06 37056   0.398E-04    0.117E-05
RMM:  16    -0.237046071376E+02    0.72530E-06   -0.69969E-06 35877   0.397E-04    0.308E-06
 Linear response to external field, progress :
  Direction:   2
       N       E                     dE             d eps       ncg     rms          rms(c)
RMM:   1    -0.161577298153E+02   -0.16158E+02   -0.95148E+01 52789   0.780E+00
RMM:   2    -0.234946955458E+02   -0.73370E+01   -0.14125E+00 44360   0.216E+00    0.771E+00
RMM:   3    -0.230240116843E+02    0.47068E+00   -0.58256E-01 41683   0.184E+00    0.441E+00
RMM:   4    -0.235063638160E+02   -0.48235E+00   -0.47808E-01 39836   0.184E+00    0.114E+00
RMM:   5    -0.236720422616E+02   -0.16568E+00    0.28497E-02 42489   0.437E-01    0.159E-01
RMM:   6    -0.236946139271E+02   -0.22572E-01   -0.56314E-02 45171   0.852E-02    0.968E-02
RMM:   7    -0.236924976068E+02    0.21163E-02    0.14730E-02 46375   0.274E-02    0.476E-02
RMM:   8    -0.237018863270E+02   -0.93887E-02    0.19099E-03 39020   0.218E-02    0.129E-02
RMM:   9    -0.237037910181E+02   -0.19047E-02   -0.23066E-03 43081   0.598E-03    0.804E-03
RMM:  10    -0.237042533553E+02   -0.46234E-03   -0.15016E-04 41950   0.314E-03    0.300E-03
RMM:  11    -0.237044531112E+02   -0.19976E-03   -0.23960E-04 42148   0.131E-03    0.220E-03
RMM:  12    -0.237045708814E+02   -0.11777E-03   -0.36917E-04 41511   0.930E-04    0.254E-04
RMM:  13    -0.237045581202E+02    0.12761E-04   -0.10766E-05 45193   0.527E-04    0.108E-04
RMM:  14    -0.237045595311E+02   -0.14109E-05    0.93748E-06 43728   0.427E-04    0.659E-05
RMM:  15    -0.237045564721E+02    0.30590E-05   -0.35582E-06 40493   0.401E-04    0.385E-05
RMM:  16    -0.237045547749E+02    0.16972E-05    0.33862E-06 36011   0.394E-04    0.123E-05
RMM:  17    -0.237045545633E+02    0.21164E-06    0.69582E-06 35647   0.394E-04    0.587E-06
 Linear response to external field, progress :
  Direction:   3
       N       E                     dE             d eps       ncg     rms          rms(c)
RMM:   1    -0.116335862513E+02   -0.11634E+02   -0.56472E+01 20982   0.746E+00
RMM:   2    -0.143616762725E+02   -0.27281E+01   -0.11540E+00 17379   0.195E+00    0.692E+00
RMM:   3    -0.148072858116E+02   -0.44561E+00   -0.83738E+01 14751   0.358E+00    0.246E+00
RMM:   4    -0.133774579733E+02    0.14298E+01   -0.72532E+01 17097   0.121E+00    0.128E+00
RMM:   5    -0.138368714778E+02   -0.45941E+00   -0.81028E+01 17270   0.517E-01    0.105E+00
RMM:   6    -0.182125579326E+02   -0.43757E+01   -0.13094E+02 16619   0.749E-01    0.575E-01
RMM:   7    -0.144661309180E+02    0.37464E+01   -0.94798E+01 17317   0.291E-01    0.449E-01
RMM:   8    -0.138282058348E+02    0.63793E+00   -0.89521E+01 16428   0.279E-01    0.202E-01
RMM:   9    -0.107635322412E+02    0.30647E+01   -0.59027E+01 16386   0.188E-01    0.152E-01
RMM:  10    -0.836369858353E+01    0.23998E+01   -0.35061E+01 15739   0.101E-01    0.107E-01
RMM:  11    -0.674684645504E+01    0.16169E+01   -0.18858E+01 15238   0.511E-02    0.674E-02
RMM:  12    -0.585631230901E+01    0.89053E+00   -0.98975E+00 13933   0.432E-02    0.284E-02
RMM:  13    -0.534638757739E+01    0.50992E+00   -0.47506E+00 14260   0.293E-02    0.164E-02
RMM:  14    -0.509304456480E+01    0.25334E+00   -0.21914E+00 15035   0.158E-02    0.130E-02
RMM:  15    -0.498737266290E+01    0.10567E+00   -0.11259E+00 15110   0.580E-03    0.614E-03
RMM:  16    -0.493020144625E+01    0.57171E-01   -0.55008E-01 15379   0.291E-03    0.186E-03
RMM:  17    -0.490111729226E+01    0.29084E-01   -0.25831E-01 17692   0.108E-03    0.102E-03
RMM:  18    -0.488901864067E+01    0.12099E-01   -0.13691E-01 17430   0.508E-04    0.290E-04
RMM:  19    -0.488186644941E+01    0.71522E-02   -0.65196E-02 16444   0.321E-04    0.101E-04
RMM:  20    -0.487839922837E+01    0.34672E-02   -0.30495E-02 17088   0.217E-04    0.625E-05
RMM:  21    -0.487656553864E+01    0.18337E-02   -0.12143E-02 14230   0.182E-04    0.278E-05
RMM:  22    -0.487602237624E+01    0.54316E-03   -0.67008E-03 12867   0.176E-04    0.178E-05
RMM:  23    -0.487570063488E+01    0.32174E-03   -0.34786E-03 12726   0.176E-04    0.559E-06
