 vasp.5.4.1 24Jun15 (build Apr 13 2016 13:07:19) complex                        
  
 executed on           IFC91_ompi date 2019.09.14  03:50:43
 running on   28 total cores
 distrk:  each k-point on   28 cores,    1 groups
 distr:  one band on NCORES_PER_BAND=   1 cores,   28 groups


--------------------------------------------------------------------------------------------------------


 INCAR:
 POTCAR:    PAW_PBE W_sv_GW 23Mar2010             
 POTCAR:    PAW_PBE Te_GW 22Mar2012               

 ----------------------------------------------------------------------------- 
|                                                                             |
|           W    W    AA    RRRRR   N    N  II  N    N   GGGG   !!!           |
|           W    W   A  A   R    R  NN   N  II  NN   N  G    G  !!!           |
|           W    W  A    A  R    R  N N  N  II  N N  N  G       !!!           |
|           W WW W  AAAAAA  RRRRR   N  N N  II  N  N N  G  GGG   !            |
|           WW  WW  A    A  R   R   N   NN  II  N   NN  G    G                |
|           W    W  A    A  R    R  N    N  II  N    N   GGGG   !!!           |
|                                                                             |
|      For optimal performance we recommend to set                            |
|        NCORE= 4 - approx SQRT( number of cores)                             |
|      NCORE specifies how many cores store one orbital (NPAR=cpu/NCORE).     |
|      This setting can  greatly improve the performance of VASP for DFT.     |
|      The default, NPAR=number of cores might be grossly inefficient         |
|      on modern multi-core architectures or massively parallel machines.     |
|      Do your own testing !!!!                                               |
|      Unfortunately you need to use the default for GW and RPA calculations. |
|      (for HF NCORE is supported but not extensively tested yet)             |
|                                                                             |
 ----------------------------------------------------------------------------- 

 POTCAR:    PAW_PBE W_sv_GW 23Mar2010             
   VRHFIN =W: 5p6s5d                                                            
   LEXCH  = PE                                                                  
   EATOM  =  1863.8917 eV,  136.9922 Ry                                         
                                                                                
   TITEL  = PAW_PBE W_sv_GW 23Mar2010                                           
   LULTRA =        F    use ultrasoft PP ?                                      
   IUNSCR =        1    unscreen: 0-lin 1-nonlin 2-no                           
   RPACOR =    1.500    partial core radius                                     
   POMASS =  183.850; ZVAL   =   14.000    mass and valenz                      
   RCORE  =    2.300    outmost cutoff radius                                   
   RWIGS  =    2.600; RWIGS  =    1.376    wigner-seitz radius (au A)           
   ENMAX  =  317.132; ENMIN  =  237.849 eV                                      
   RCLOC  =    1.609    cutoff for local pot                                    
   LCOR   =        T    correct aug charges                                     
   LPAW   =        T    paw PP                                                  
   EAUG   =  807.757                                                            
   DEXC   =    0.000                                                            
   RMAX   =    2.349    core radius for proj-oper                               
   RAUG   =    1.300    factor for augmentation sphere                          
   RDEP   =    2.382    radius for radial grids                                 
   RDEPT  =    1.832    core radius for aug-charge                              
                                                                                
   Atomic configuration                                                         
   14 entries                                                                   
     n  l   j            E        occ.                                          
     1  0  0.50    -69464.1497   2.0000                                         
     2  0  0.50    -11984.7400   2.0000                                         
     2  1  1.50    -10478.3405   6.0000                                         
     3  0  0.50     -2757.5605   2.0000                                         
     3  1  1.50     -2311.6706   6.0000                                         
     3  2  2.50     -1799.5973  10.0000                                         
     4  0  0.50      -566.1609   2.0000                                         
     4  1  1.50      -419.9482   6.0000                                         
     4  2  2.50      -234.8191  10.0000                                         
     4  3  3.50       -29.7363  14.0000                                         
     5  0  0.50       -75.5905   2.0000                                         
     5  1  1.50       -39.9756   6.0000                                         
     5  2  2.50        -2.4479   6.0000                                         
     5  3  2.50        -1.3606   0.0000                                         
   Description                                                                  
     l       E           TYP  RCUT    TYP  RCUT                                 
     0    -75.5905419     23  1.500                                             
     0    -76.9511245     23  1.500                                             
     0    108.8466080     23  1.500                                             
     1    -39.9756040     23  1.800                                             
     1     68.0291300     23  1.800                                             
     2     -2.4478587     23  2.150                                             
     2     -0.0030619     23  2.150                                             
     3      4.0817478     23  2.300                                             
  local pseudopotential read in
  partial core-charges read in
  partial kinetic energy density read in
  kinetic energy density of atom read in
  atomic valenz-charges read in
  non local Contribution for L=           0  read in
    real space projection operators read in
  non local Contribution for L=           0  read in
    real space projection operators read in
  non local Contribution for L=           0  read in
    real space projection operators read in
  non local Contribution for L=           1  read in
    real space projection operators read in
  non local Contribution for L=           1  read in
    real space projection operators read in
  non local Contribution for L=           2  read in
    real space projection operators read in
  non local Contribution for L=           2  read in
    real space projection operators read in
  non local Contribution for L=           3  read in
    real space projection operators read in
    PAW grid and wavefunctions read in
 
   number of l-projection  operators is LMAX  =           8
   number of lm-projection operators is LMMAX =          26
 
 POTCAR:    PAW_PBE Te_GW 22Mar2012               
   VRHFIN =Te: s2p4                                                             
   LEXCH  = PE                                                                  
   EATOM  =   223.2721 eV,   16.4100 Ry                                         
                                                                                
   TITEL  = PAW_PBE Te_GW 22Mar2012                                             
   LULTRA =        F    use ultrasoft PP ?                                      
   IUNSCR =        1    unscreen: 0-lin 1-nonlin 2-no                           
   RPACOR =    2.200    partial core radius                                     
   POMASS =  127.600; ZVAL   =    6.000    mass and valenz                      
   RCORE  =    2.600    outmost cutoff radius                                   
   RWIGS  =    2.900; RWIGS  =    1.535    wigner-seitz radius (au A)           
   ENMAX  =  174.982; ENMIN  =  131.236 eV                                      
   ICORE  =        3    local potential                                         
   LCOR   =        T    correct aug charges                                     
   LPAW   =        T    paw PP                                                  
   EAUG   =  368.792                                                            
   DEXC   =    0.000                                                            
   RMAX   =    2.665    core radius for proj-oper                               
   RAUG   =    1.300    factor for augmentation sphere                          
   RDEP   =    2.724    radius for radial grids                                 
   RDEPT  =    2.174    core radius for aug-charge                              
                                                                                
   Atomic configuration                                                         
   13 entries                                                                   
     n  l   j            E        occ.                                          
     1  0  0.50    -31621.2075   2.0000                                         
     2  0  0.50     -4848.7941   2.0000                                         
     2  1  1.50     -4352.1960   6.0000                                         
     3  0  0.50      -964.9612   2.0000                                         
     3  1  1.50      -803.6179   6.0000                                         
     3  2  2.50      -559.8710  10.0000                                         
     4  0  0.50      -164.3522   2.0000                                         
     4  1  1.50      -114.3756   6.0000                                         
     4  2  2.50       -41.6483  10.0000                                         
     5  0  0.50       -15.1072   2.0000                                         
     5  1  0.50        -5.9526   4.0000                                         
     5  2  1.50        -6.8029   0.0000                                         
     4  3  2.50        -6.8029   0.0000                                         
   Description                                                                  
     l       E           TYP  RCUT    TYP  RCUT                                 
     0    -15.1072389     23  2.300                                             
     0     68.0291300     23  2.300                                             
     1     -5.9526306     23  2.300                                             
     1     95.2407820     23  2.300                                             
     2      1.3605826     23  2.600                                             
     2     68.0291300     23  2.600                                             
     3     -1.3605826     23  2.300                                             
  local pseudopotential read in
  partial core-charges read in
  partial kinetic energy density read in
  kinetic energy density of atom read in
  atomic valenz-charges read in
  non local Contribution for L=           0  read in
    real space projection operators read in
  non local Contribution for L=           0  read in
    real space projection operators read in
  non local Contribution for L=           1  read in
    real space projection operators read in
  non local Contribution for L=           1  read in
    real space projection operators read in
  non local Contribution for L=           2  read in
    real space projection operators read in
  non local Contribution for L=           2  read in
    real space projection operators read in
    PAW grid and wavefunctions read in
 
   number of l-projection  operators is LMAX  =           6
   number of lm-projection operators is LMMAX =          18
 

 ----------------------------------------------------------------------------- 
|                                                                             |
|  ADVICE TO THIS USER RUNNING 'VASP/VAMP'   (HEAR YOUR MASTER'S VOICE ...):  |
|                                                                             |
|      You have a (more or less) 'large supercell' and for larger cells       |
|      it might be more efficient to use real space projection opertators     |
|      So try LREAL= Auto  in the INCAR   file.                               |
|      Mind: At the moment your POTCAR file does not contain real space       |
|       projectors, and has to be modified,  BUT if you                       |
|      want to do an extremely  accurate calculation you might also keep the  |
|      reciprocal projection scheme          (i.e. LREAL=.FALSE.)             |
|                                                                             |
 ----------------------------------------------------------------------------- 

  PAW_PBE W_sv_GW 23Mar2010             :
 energy of atom  1       EATOM=-1863.8917
 kinetic energy error for atom=    0.2291 (will be added to EATOM!!)
  PAW_PBE Te_GW 22Mar2012               :
 energy of atom  2       EATOM= -223.2721
 kinetic energy error for atom=    0.0024 (will be added to EATOM!!)
 
 
 POSCAR:  W Te                                   
  positions in cartesian coordinates
  No initial velocities read in
 exchange correlation table for  LEXCH =        8
   RHO(1)=    0.500       N(1)  =     2000
   RHO(2)=  100.500       N(2)  =     4000
 


--------------------------------------------------------------------------------------------------------


 ion  position               nearest neighbor table
   1  0.167  0.333  0.147-   7 2.74   8 2.74   7 2.74   8 2.74   7 2.74   8 2.74
   2  0.833  0.667  0.288-   9 2.74   9 2.74   9 2.74  10 2.74  10 2.74  10 2.74
   3  0.167  0.333  0.429-  11 2.74  12 2.74  11 2.74  12 2.74  11 2.74  12 2.74
   4  0.833  0.667  0.571-  13 2.74  14 2.74  13 2.74  14 2.74  13 2.74  14 2.74
   5  0.167  0.333  0.712-  16 2.74  16 2.74  16 2.74  15 2.74  15 2.74  15 2.74
   6  0.833  0.667  0.853-  17 2.74  18 2.74  17 2.74  18 2.74  17 2.74  18 2.74
   7  0.833  0.667  0.183-   1 2.74   1 2.74   1 2.74   8 3.62
   8  0.833  0.667  0.111-   1 2.74   1 2.74   1 2.74   7 3.62
   9  0.167  0.333  0.324-   2 2.74   2 2.74   2 2.74  10 3.62
  10  0.167  0.333  0.252-   2 2.74   2 2.74   2 2.74   9 3.62
  11  0.833  0.667  0.466-   3 2.74   3 2.74   3 2.74  12 3.62
  12  0.833  0.667  0.393-   3 2.74   3 2.74   3 2.74  11 3.62
  13  0.167  0.333  0.607-   4 2.74   4 2.74   4 2.74  14 3.62
  14  0.167  0.333  0.534-   4 2.74   4 2.74   4 2.74  13 3.62
  15  0.833  0.667  0.748-   5 2.74   5 2.74   5 2.74  16 3.62
  16  0.833  0.667  0.676-   5 2.74   5 2.74   5 2.74  15 3.62
  17  0.167  0.333  0.889-   6 2.74   6 2.74   6 2.74  18 3.62
  18  0.167  0.333  0.817-   6 2.74   6 2.74   6 2.74  17 3.62
 
  LATTYP: Found a hexagonal cell.
 ALAT       =     3.5500762221
 C/A-ratio  =    14.0842046402
  
  Lattice vectors:
  
 A1 = (   3.5500762221,   0.0000000000,   0.0000000000)
 A2 = (  -1.7750381110,   3.0744561937,   0.0000000000)
 A3 = (   0.0000000000,   0.0000000000,  50.0000000000)


Analysis of symmetry for initial positions (statically):
=====================================================================
 Subroutine PRICEL returns:
 Original cell was already a primitive cell.
 

 Routine SETGRP: Setting up the symmetry group for a 
 hexagonal supercell.


 Subroutine GETGRP returns: Found 12 space group operations
 (whereof  4 operations were pure point group operations)
 out of a pool of 24 trial point group operations.


The static configuration has the point symmetry C_2h.
 The point group associated with its full space group is D_3d.


Analysis of symmetry for dynamics (positions and initial velocities):
=====================================================================
 Subroutine PRICEL returns:
 Original cell was already a primitive cell.
 

 Routine SETGRP: Setting up the symmetry group for a 
 hexagonal supercell.


 Subroutine GETGRP returns: Found 12 space group operations
 (whereof  4 operations were pure point group operations)
 out of a pool of 24 trial point group operations.


The dynamic configuration has the point symmetry C_2h.
 The point group associated with its full space group is D_3d.


 Subroutine INISYM returns: Found 12 space group operations
 (whereof  4 operations are pure point group operations),
 and found     1 'primitive' translations

 
 
 KPOINTS: KPOINTS created by Atomic Simulation Env

Automatic generation of k-mesh.
Space group operators:
 irot       det(A)        alpha          n_x          n_y          n_z        tau_x        tau_y        tau_z
    1     1.000000     0.000001     1.000000     0.000000     0.000000     0.000000     0.000000     0.000000
    2    -1.000000     0.000001     1.000000     0.000000     0.000000     0.000000     0.000000     0.000000
    3     1.000000   179.999999     1.000000     0.000000     0.000000     0.000000     0.000000     0.000000
    4    -1.000000   179.999999     1.000000     0.000000     0.000000     0.000000     0.000000     0.000000
    5     1.000000   120.000000     0.000000     0.000000    -1.000000     0.500000     0.500000     0.000000
    6    -1.000000   120.000000     0.000000     0.000000    -1.000000     0.500000     0.500000     0.000000
    7     1.000000   120.000000     0.000000     0.000000     1.000000     0.000000     0.500000     0.000000
    8    -1.000000   120.000000     0.000000     0.000000     1.000000     0.000000     0.500000     0.000000
    9     1.000000   180.000000     0.500000    -0.866025     0.000000     0.000000     0.500000     0.000000
   10    -1.000000   180.000000     0.500000    -0.866025     0.000000     0.000000     0.500000     0.000000
   11     1.000000   180.000000    -0.500000    -0.866025     0.000000     0.500000     0.500000     0.000000
   12    -1.000000   180.000000    -0.500000    -0.866025     0.000000     0.500000     0.500000     0.000000
 
 Subroutine IBZKPT returns following result:
 ===========================================
 
 Found     37 irreducible k-points:
 
 Following reciprocal coordinates:
            Coordinates               Weight
  0.000000  0.000000  0.000000      1.000000
  0.055556  0.000000  0.000000      6.000000
  0.111111  0.000000  0.000000      6.000000
  0.166667  0.000000  0.000000      6.000000
  0.222222  0.000000  0.000000      6.000000
  0.277778  0.000000  0.000000      6.000000
  0.333333  0.000000  0.000000      6.000000
  0.388889  0.000000  0.000000      6.000000
  0.444444  0.000000  0.000000      6.000000
  0.500000  0.000000  0.000000      3.000000
  0.055556  0.055556  0.000000      6.000000
  0.111111  0.055556  0.000000     12.000000
  0.166667  0.055556  0.000000     12.000000
  0.222222  0.055556  0.000000     12.000000
  0.277778  0.055556  0.000000     12.000000
  0.333333  0.055556  0.000000     12.000000
  0.388889  0.055556  0.000000     12.000000
  0.444444  0.055556  0.000000     12.000000
  0.111111  0.111111  0.000000      6.000000
  0.166667  0.111111  0.000000     12.000000
  0.222222  0.111111  0.000000     12.000000
  0.277778  0.111111  0.000000     12.000000
  0.333333  0.111111  0.000000     12.000000
  0.388889  0.111111  0.000000     12.000000
  0.444444  0.111111  0.000000      6.000000
  0.166667  0.166667  0.000000      6.000000
  0.222222  0.166667  0.000000     12.000000
  0.277778  0.166667  0.000000     12.000000
  0.333333  0.166667  0.000000     12.000000
  0.388889  0.166667  0.000000     12.000000
  0.222222  0.222222  0.000000      6.000000
  0.277778  0.222222  0.000000     12.000000
  0.333333  0.222222  0.000000     12.000000
  0.388889  0.222222  0.000000      6.000000
  0.277778  0.277778  0.000000      6.000000
  0.333333  0.277778  0.000000     12.000000
  0.333333  0.333333  0.000000      2.000000
 
 Following cartesian coordinates:
            Coordinates               Weight
  0.000000  0.000000  0.000000      1.000000
  0.015649  0.009035  0.000000      6.000000
  0.031298  0.018070  0.000000      6.000000
  0.046947  0.027105  0.000000      6.000000
  0.062596  0.036140  0.000000      6.000000
  0.078246  0.045175  0.000000      6.000000
  0.093895  0.054210  0.000000      6.000000
  0.109544  0.063245  0.000000      6.000000
  0.125193  0.072280  0.000000      6.000000
  0.140842  0.081315  0.000000      3.000000
  0.015649  0.027105  0.000000      6.000000
  0.031298  0.036140  0.000000     12.000000
  0.046947  0.045175  0.000000     12.000000
  0.062596  0.054210  0.000000     12.000000
  0.078246  0.063245  0.000000     12.000000
  0.093895  0.072280  0.000000     12.000000
  0.109544  0.081315  0.000000     12.000000
  0.125193  0.090350  0.000000     12.000000
  0.031298  0.054210  0.000000      6.000000
  0.046947  0.063245  0.000000     12.000000
  0.062596  0.072280  0.000000     12.000000
  0.078246  0.081315  0.000000     12.000000
  0.093895  0.090350  0.000000     12.000000
  0.109544  0.099385  0.000000     12.000000
  0.125193  0.108420  0.000000      6.000000
  0.046947  0.081315  0.000000      6.000000
  0.062596  0.090350  0.000000     12.000000
  0.078246  0.099385  0.000000     12.000000
  0.093895  0.108420  0.000000     12.000000
  0.109544  0.117455  0.000000     12.000000
  0.062596  0.108420  0.000000      6.000000
  0.078246  0.117455  0.000000     12.000000
  0.093895  0.126490  0.000000     12.000000
  0.109544  0.135525  0.000000      6.000000
  0.078246  0.135525  0.000000      6.000000
  0.093895  0.144560  0.000000     12.000000
  0.093895  0.162630  0.000000      2.000000
 
 TETIRR: Found    169 inequivalent tetrahedra from     1944
 
 Subroutine IBZKPT_HF returns following result:
 ==============================================
 
 Found    324 k-points in 1st BZ
 the following    324 k-points will be used (e.g. in the exchange kernel)
 Following reciprocal coordinates:   # in IRBZ
  0.000000  0.000000  0.000000    0.00308642   1 t-inv F
  0.055556  0.000000  0.000000    0.00308642   2 t-inv F
  0.111111  0.000000  0.000000    0.00308642   3 t-inv F
  0.166667  0.000000  0.000000    0.00308642   4 t-inv F
  0.222222  0.000000  0.000000    0.00308642   5 t-inv F
  0.277778  0.000000  0.000000    0.00308642   6 t-inv F
  0.333333  0.000000  0.000000    0.00308642   7 t-inv F
  0.388889  0.000000  0.000000    0.00308642   8 t-inv F
  0.444444  0.000000  0.000000    0.00308642   9 t-inv F
  0.500000  0.000000  0.000000    0.00308642  10 t-inv F
  0.055556  0.055556  0.000000    0.00308642  11 t-inv F
  0.111111  0.055556  0.000000    0.00308642  12 t-inv F
  0.166667  0.055556  0.000000    0.00308642  13 t-inv F
  0.222222  0.055556  0.000000    0.00308642  14 t-inv F
  0.277778  0.055556  0.000000    0.00308642  15 t-inv F
  0.333333  0.055556  0.000000    0.00308642  16 t-inv F
  0.388889  0.055556  0.000000    0.00308642  17 t-inv F
  0.444444  0.055556  0.000000    0.00308642  18 t-inv F
  0.111111  0.111111  0.000000    0.00308642  19 t-inv F
  0.166667  0.111111  0.000000    0.00308642  20 t-inv F
  0.222222  0.111111  0.000000    0.00308642  21 t-inv F
  0.277778  0.111111  0.000000    0.00308642  22 t-inv F
  0.333333  0.111111  0.000000    0.00308642  23 t-inv F
  0.388889  0.111111  0.000000    0.00308642  24 t-inv F
  0.444444  0.111111  0.000000    0.00308642  25 t-inv F
  0.166667  0.166667  0.000000    0.00308642  26 t-inv F
  0.222222  0.166667  0.000000    0.00308642  27 t-inv F
  0.277778  0.166667  0.000000    0.00308642  28 t-inv F
  0.333333  0.166667  0.000000    0.00308642  29 t-inv F
  0.388889  0.166667  0.000000    0.00308642  30 t-inv F
  0.222222  0.222222  0.000000    0.00308642  31 t-inv F
  0.277778  0.222222  0.000000    0.00308642  32 t-inv F
  0.333333  0.222222  0.000000    0.00308642  33 t-inv F
  0.388889  0.222222  0.000000    0.00308642  34 t-inv F
  0.277778  0.277778  0.000000    0.00308642  35 t-inv F
  0.333333  0.277778  0.000000    0.00308642  36 t-inv F
  0.333333  0.333333  0.000000    0.00308642  37 t-inv F
 -0.055556 -0.000000 -0.000000    0.00308642   2 t-inv F
  0.055556 -0.055556 -0.000000    0.00308642   2 t-inv F
 -0.055556  0.055556  0.000000    0.00308642   2 t-inv F
  0.000000 -0.055556  0.000000    0.00308642   2 t-inv F
 -0.000000  0.055556 -0.000000    0.00308642   2 t-inv F
 -0.111111 -0.000000 -0.000000    0.00308642   3 t-inv F
  0.111111 -0.111111 -0.000000    0.00308642   3 t-inv F
 -0.111111  0.111111  0.000000    0.00308642   3 t-inv F
  0.000000 -0.111111  0.000000    0.00308642   3 t-inv F
 -0.000000  0.111111 -0.000000    0.00308642   3 t-inv F
 -0.166667 -0.000000 -0.000000    0.00308642   4 t-inv F
  0.166667 -0.166667 -0.000000    0.00308642   4 t-inv F
 -0.166667  0.166667  0.000000    0.00308642   4 t-inv F
  0.000000 -0.166667  0.000000    0.00308642   4 t-inv F
 -0.000000  0.166667 -0.000000    0.00308642   4 t-inv F
 -0.222222 -0.000000 -0.000000    0.00308642   5 t-inv F
  0.222222 -0.222222 -0.000000    0.00308642   5 t-inv F
 -0.222222  0.222222  0.000000    0.00308642   5 t-inv F
  0.000000 -0.222222  0.000000    0.00308642   5 t-inv F
 -0.000000  0.222222 -0.000000    0.00308642   5 t-inv F
 -0.277778 -0.000000 -0.000000    0.00308642   6 t-inv F
  0.277778 -0.277778 -0.000000    0.00308642   6 t-inv F
 -0.277778  0.277778  0.000000    0.00308642   6 t-inv F
  0.000000 -0.277778  0.000000    0.00308642   6 t-inv F
 -0.000000  0.277778 -0.000000    0.00308642   6 t-inv F
 -0.333333 -0.000000 -0.000000    0.00308642   7 t-inv F
  0.333333 -0.333333 -0.000000    0.00308642   7 t-inv F
 -0.333333  0.333333  0.000000    0.00308642   7 t-inv F
  0.000000 -0.333333  0.000000    0.00308642   7 t-inv F
 -0.000000  0.333333 -0.000000    0.00308642   7 t-inv F
 -0.388889 -0.000000 -0.000000    0.00308642   8 t-inv F
  0.388889 -0.388889 -0.000000    0.00308642   8 t-inv F
 -0.388889  0.388889  0.000000    0.00308642   8 t-inv F
  0.000000 -0.388889  0.000000    0.00308642   8 t-inv F
 -0.000000  0.388889 -0.000000    0.00308642   8 t-inv F
 -0.444444 -0.000000 -0.000000    0.00308642   9 t-inv F
  0.444444 -0.444444 -0.000000    0.00308642   9 t-inv F
 -0.444444  0.444444  0.000000    0.00308642   9 t-inv F
  0.000000 -0.444444  0.000000    0.00308642   9 t-inv F
 -0.000000  0.444444 -0.000000    0.00308642   9 t-inv F
  0.500000 -0.500000 -0.000000    0.00308642  10 t-inv F
  0.000000 -0.500000  0.000000    0.00308642  10 t-inv F
 -0.055556 -0.055556 -0.000000    0.00308642  11 t-inv F
  0.055556 -0.111111 -0.000000    0.00308642  11 t-inv F
 -0.055556  0.111111  0.000000    0.00308642  11 t-inv F
 -0.111111  0.055556  0.000000    0.00308642  11 t-inv F
  0.111111 -0.055556 -0.000000    0.00308642  11 t-inv F
 -0.111111 -0.055556 -0.000000    0.00308642  12 t-inv F
  0.111111 -0.166667 -0.000000    0.00308642  12 t-inv F
 -0.111111  0.166667  0.000000    0.00308642  12 t-inv F
 -0.166667  0.111111  0.000000    0.00308642  12 t-inv F
  0.166667 -0.111111 -0.000000    0.00308642  12 t-inv F
  0.055556 -0.166667  0.000000    0.00308642  12 t-inv F
 -0.055556  0.166667 -0.000000    0.00308642  12 t-inv F
 -0.166667  0.055556 -0.000000    0.00308642  12 t-inv F
  0.166667 -0.055556  0.000000    0.00308642  12 t-inv F
  0.055556  0.111111 -0.000000    0.00308642  12 t-inv F
 -0.055556 -0.111111  0.000000    0.00308642  12 t-inv F
 -0.166667 -0.055556 -0.000000    0.00308642  13 t-inv F
  0.166667 -0.222222 -0.000000    0.00308642  13 t-inv F
 -0.166667  0.222222  0.000000    0.00308642  13 t-inv F
 -0.222222  0.166667  0.000000    0.00308642  13 t-inv F
  0.222222 -0.166667 -0.000000    0.00308642  13 t-inv F
  0.055556 -0.222222  0.000000    0.00308642  13 t-inv F
 -0.055556  0.222222 -0.000000    0.00308642  13 t-inv F
 -0.222222  0.055556 -0.000000    0.00308642  13 t-inv F
  0.222222 -0.055556  0.000000    0.00308642  13 t-inv F
  0.055556  0.166667 -0.000000    0.00308642  13 t-inv F
 -0.055556 -0.166667  0.000000    0.00308642  13 t-inv F
 -0.222222 -0.055556 -0.000000    0.00308642  14 t-inv F
  0.222222 -0.277778 -0.000000    0.00308642  14 t-inv F
 -0.222222  0.277778  0.000000    0.00308642  14 t-inv F
 -0.277778  0.222222  0.000000    0.00308642  14 t-inv F
  0.277778 -0.222222 -0.000000    0.00308642  14 t-inv F
  0.055556 -0.277778  0.000000    0.00308642  14 t-inv F
 -0.055556  0.277778 -0.000000    0.00308642  14 t-inv F
 -0.277778  0.055556 -0.000000    0.00308642  14 t-inv F
  0.277778 -0.055556  0.000000    0.00308642  14 t-inv F
  0.055556  0.222222 -0.000000    0.00308642  14 t-inv F
 -0.055556 -0.222222  0.000000    0.00308642  14 t-inv F
 -0.277778 -0.055556 -0.000000    0.00308642  15 t-inv F
  0.277778 -0.333333 -0.000000    0.00308642  15 t-inv F
 -0.277778  0.333333  0.000000    0.00308642  15 t-inv F
 -0.333333  0.277778  0.000000    0.00308642  15 t-inv F
  0.333333 -0.277778 -0.000000    0.00308642  15 t-inv F
  0.055556 -0.333333  0.000000    0.00308642  15 t-inv F
 -0.055556  0.333333 -0.000000    0.00308642  15 t-inv F
 -0.333333  0.055556 -0.000000    0.00308642  15 t-inv F
  0.333333 -0.055556  0.000000    0.00308642  15 t-inv F
  0.055556  0.277778 -0.000000    0.00308642  15 t-inv F
 -0.055556 -0.277778  0.000000    0.00308642  15 t-inv F
 -0.333333 -0.055556 -0.000000    0.00308642  16 t-inv F
  0.333333 -0.388889 -0.000000    0.00308642  16 t-inv F
 -0.333333  0.388889  0.000000    0.00308642  16 t-inv F
 -0.388889  0.333333  0.000000    0.00308642  16 t-inv F
  0.388889 -0.333333 -0.000000    0.00308642  16 t-inv F
  0.055556 -0.388889  0.000000    0.00308642  16 t-inv F
 -0.055556  0.388889 -0.000000    0.00308642  16 t-inv F
 -0.388889  0.055556 -0.000000    0.00308642  16 t-inv F
  0.388889 -0.055556  0.000000    0.00308642  16 t-inv F
  0.055556  0.333333 -0.000000    0.00308642  16 t-inv F
 -0.055556 -0.333333  0.000000    0.00308642  16 t-inv F
 -0.388889 -0.055556 -0.000000    0.00308642  17 t-inv F
  0.388889 -0.444444 -0.000000    0.00308642  17 t-inv F
 -0.388889  0.444444  0.000000    0.00308642  17 t-inv F
 -0.444444  0.388889  0.000000    0.00308642  17 t-inv F
  0.444444 -0.388889 -0.000000    0.00308642  17 t-inv F
  0.055556 -0.444444  0.000000    0.00308642  17 t-inv F
 -0.055556  0.444444 -0.000000    0.00308642  17 t-inv F
 -0.444444  0.055556 -0.000000    0.00308642  17 t-inv F
  0.444444 -0.055556  0.000000    0.00308642  17 t-inv F
  0.055556  0.388889 -0.000000    0.00308642  17 t-inv F
 -0.055556 -0.388889  0.000000    0.00308642  17 t-inv F
 -0.444444 -0.055556 -0.000000    0.00308642  18 t-inv F
  0.444444 -0.500000 -0.000000    0.00308642  18 t-inv F
 -0.444444  0.500000  0.000000    0.00308642  18 t-inv F
 -0.500000  0.444444  0.000000    0.00308642  18 t-inv F
  0.500000 -0.444444 -0.000000    0.00308642  18 t-inv F
  0.055556 -0.500000  0.000000    0.00308642  18 t-inv F
 -0.055556  0.500000 -0.000000    0.00308642  18 t-inv F
 -0.500000  0.055556 -0.000000    0.00308642  18 t-inv F
  0.500000 -0.055556  0.000000    0.00308642  18 t-inv F
  0.055556  0.444444 -0.000000    0.00308642  18 t-inv F
 -0.055556 -0.444444  0.000000    0.00308642  18 t-inv F
 -0.111111 -0.111111 -0.000000    0.00308642  19 t-inv F
  0.111111 -0.222222 -0.000000    0.00308642  19 t-inv F
 -0.111111  0.222222  0.000000    0.00308642  19 t-inv F
 -0.222222  0.111111  0.000000    0.00308642  19 t-inv F
  0.222222 -0.111111 -0.000000    0.00308642  19 t-inv F
 -0.166667 -0.111111 -0.000000    0.00308642  20 t-inv F
  0.166667 -0.277778 -0.000000    0.00308642  20 t-inv F
 -0.166667  0.277778  0.000000    0.00308642  20 t-inv F
 -0.277778  0.166667  0.000000    0.00308642  20 t-inv F
  0.277778 -0.166667 -0.000000    0.00308642  20 t-inv F
  0.111111 -0.277778  0.000000    0.00308642  20 t-inv F
 -0.111111  0.277778 -0.000000    0.00308642  20 t-inv F
 -0.277778  0.111111 -0.000000    0.00308642  20 t-inv F
  0.277778 -0.111111  0.000000    0.00308642  20 t-inv F
  0.111111  0.166667 -0.000000    0.00308642  20 t-inv F
 -0.111111 -0.166667  0.000000    0.00308642  20 t-inv F
 -0.222222 -0.111111 -0.000000    0.00308642  21 t-inv F
  0.222222 -0.333333 -0.000000    0.00308642  21 t-inv F
 -0.222222  0.333333  0.000000    0.00308642  21 t-inv F
 -0.333333  0.222222  0.000000    0.00308642  21 t-inv F
  0.333333 -0.222222 -0.000000    0.00308642  21 t-inv F
  0.111111 -0.333333  0.000000    0.00308642  21 t-inv F
 -0.111111  0.333333 -0.000000    0.00308642  21 t-inv F
 -0.333333  0.111111 -0.000000    0.00308642  21 t-inv F
  0.333333 -0.111111  0.000000    0.00308642  21 t-inv F
  0.111111  0.222222 -0.000000    0.00308642  21 t-inv F
 -0.111111 -0.222222  0.000000    0.00308642  21 t-inv F
 -0.277778 -0.111111 -0.000000    0.00308642  22 t-inv F
  0.277778 -0.388889 -0.000000    0.00308642  22 t-inv F
 -0.277778  0.388889  0.000000    0.00308642  22 t-inv F
 -0.388889  0.277778  0.000000    0.00308642  22 t-inv F
  0.388889 -0.277778 -0.000000    0.00308642  22 t-inv F
  0.111111 -0.388889  0.000000    0.00308642  22 t-inv F
 -0.111111  0.388889 -0.000000    0.00308642  22 t-inv F
 -0.388889  0.111111 -0.000000    0.00308642  22 t-inv F
  0.388889 -0.111111  0.000000    0.00308642  22 t-inv F
  0.111111  0.277778 -0.000000    0.00308642  22 t-inv F
 -0.111111 -0.277778  0.000000    0.00308642  22 t-inv F
 -0.333333 -0.111111 -0.000000    0.00308642  23 t-inv F
  0.333333 -0.444444 -0.000000    0.00308642  23 t-inv F
 -0.333333  0.444444  0.000000    0.00308642  23 t-inv F
 -0.444444  0.333333  0.000000    0.00308642  23 t-inv F
  0.444444 -0.333333 -0.000000    0.00308642  23 t-inv F
  0.111111 -0.444444  0.000000    0.00308642  23 t-inv F
 -0.111111  0.444444 -0.000000    0.00308642  23 t-inv F
 -0.444444  0.111111 -0.000000    0.00308642  23 t-inv F
  0.444444 -0.111111  0.000000    0.00308642  23 t-inv F
  0.111111  0.333333 -0.000000    0.00308642  23 t-inv F
 -0.111111 -0.333333  0.000000    0.00308642  23 t-inv F
 -0.388889 -0.111111 -0.000000    0.00308642  24 t-inv F
  0.388889 -0.500000 -0.000000    0.00308642  24 t-inv F
 -0.388889  0.500000  0.000000    0.00308642  24 t-inv F
 -0.500000  0.388889  0.000000    0.00308642  24 t-inv F
  0.500000 -0.388889 -0.000000    0.00308642  24 t-inv F
  0.111111 -0.500000  0.000000    0.00308642  24 t-inv F
 -0.111111  0.500000 -0.000000    0.00308642  24 t-inv F
 -0.500000  0.111111 -0.000000    0.00308642  24 t-inv F
  0.500000 -0.111111  0.000000    0.00308642  24 t-inv F
  0.111111  0.388889 -0.000000    0.00308642  24 t-inv F
 -0.111111 -0.388889  0.000000    0.00308642  24 t-inv F
 -0.444444 -0.111111 -0.000000    0.00308642  25 t-inv F
  0.444444 -0.555556 -0.000000    0.00308642  25 t-inv F
 -0.444444  0.555556  0.000000    0.00308642  25 t-inv F
  0.111111 -0.555556  0.000000    0.00308642  25 t-inv F
 -0.111111  0.555556 -0.000000    0.00308642  25 t-inv F
 -0.166667 -0.166667 -0.000000    0.00308642  26 t-inv F
  0.166667 -0.333333 -0.000000    0.00308642  26 t-inv F
 -0.166667  0.333333  0.000000    0.00308642  26 t-inv F
 -0.333333  0.166667  0.000000    0.00308642  26 t-inv F
  0.333333 -0.166667 -0.000000    0.00308642  26 t-inv F
 -0.222222 -0.166667 -0.000000    0.00308642  27 t-inv F
  0.222222 -0.388889 -0.000000    0.00308642  27 t-inv F
 -0.222222  0.388889  0.000000    0.00308642  27 t-inv F
 -0.388889  0.222222  0.000000    0.00308642  27 t-inv F
  0.388889 -0.222222 -0.000000    0.00308642  27 t-inv F
  0.166667 -0.388889  0.000000    0.00308642  27 t-inv F
 -0.166667  0.388889 -0.000000    0.00308642  27 t-inv F
 -0.388889  0.166667 -0.000000    0.00308642  27 t-inv F
  0.388889 -0.166667  0.000000    0.00308642  27 t-inv F
  0.166667  0.222222 -0.000000    0.00308642  27 t-inv F
 -0.166667 -0.222222  0.000000    0.00308642  27 t-inv F
 -0.277778 -0.166667 -0.000000    0.00308642  28 t-inv F
  0.277778 -0.444444 -0.000000    0.00308642  28 t-inv F
 -0.277778  0.444444  0.000000    0.00308642  28 t-inv F
 -0.444444  0.277778  0.000000    0.00308642  28 t-inv F
  0.444444 -0.277778 -0.000000    0.00308642  28 t-inv F
  0.166667 -0.444444  0.000000    0.00308642  28 t-inv F
 -0.166667  0.444444 -0.000000    0.00308642  28 t-inv F
 -0.444444  0.166667 -0.000000    0.00308642  28 t-inv F
  0.444444 -0.166667  0.000000    0.00308642  28 t-inv F
  0.166667  0.277778 -0.000000    0.00308642  28 t-inv F
 -0.166667 -0.277778  0.000000    0.00308642  28 t-inv F
 -0.333333 -0.166667 -0.000000    0.00308642  29 t-inv F
  0.333333 -0.500000 -0.000000    0.00308642  29 t-inv F
 -0.333333  0.500000  0.000000    0.00308642  29 t-inv F
 -0.500000  0.333333  0.000000    0.00308642  29 t-inv F
  0.500000 -0.333333 -0.000000    0.00308642  29 t-inv F
  0.166667 -0.500000  0.000000    0.00308642  29 t-inv F
 -0.166667  0.500000 -0.000000    0.00308642  29 t-inv F
 -0.500000  0.166667 -0.000000    0.00308642  29 t-inv F
  0.500000 -0.166667  0.000000    0.00308642  29 t-inv F
  0.166667  0.333333 -0.000000    0.00308642  29 t-inv F
 -0.166667 -0.333333  0.000000    0.00308642  29 t-inv F
 -0.388889 -0.166667 -0.000000    0.00308642  30 t-inv F
  0.388889 -0.555556 -0.000000    0.00308642  30 t-inv F
 -0.388889  0.555556  0.000000    0.00308642  30 t-inv F
 -0.555556  0.388889  0.000000    0.00308642  30 t-inv F
  0.555556 -0.388889 -0.000000    0.00308642  30 t-inv F
  0.166667 -0.555556  0.000000    0.00308642  30 t-inv F
 -0.166667  0.555556 -0.000000    0.00308642  30 t-inv F
 -0.555556  0.166667 -0.000000    0.00308642  30 t-inv F
  0.555556 -0.166667  0.000000    0.00308642  30 t-inv F
  0.166667  0.388889 -0.000000    0.00308642  30 t-inv F
 -0.166667 -0.388889  0.000000    0.00308642  30 t-inv F
 -0.222222 -0.222222 -0.000000    0.00308642  31 t-inv F
  0.222222 -0.444444 -0.000000    0.00308642  31 t-inv F
 -0.222222  0.444444  0.000000    0.00308642  31 t-inv F
 -0.444444  0.222222  0.000000    0.00308642  31 t-inv F
  0.444444 -0.222222 -0.000000    0.00308642  31 t-inv F
 -0.277778 -0.222222 -0.000000    0.00308642  32 t-inv F
  0.277778 -0.500000 -0.000000    0.00308642  32 t-inv F
 -0.277778  0.500000  0.000000    0.00308642  32 t-inv F
 -0.500000  0.277778  0.000000    0.00308642  32 t-inv F
  0.500000 -0.277778 -0.000000    0.00308642  32 t-inv F
  0.222222 -0.500000  0.000000    0.00308642  32 t-inv F
 -0.222222  0.500000 -0.000000    0.00308642  32 t-inv F
 -0.500000  0.222222 -0.000000    0.00308642  32 t-inv F
  0.500000 -0.222222  0.000000    0.00308642  32 t-inv F
  0.222222  0.277778 -0.000000    0.00308642  32 t-inv F
 -0.222222 -0.277778  0.000000    0.00308642  32 t-inv F
 -0.333333 -0.222222 -0.000000    0.00308642  33 t-inv F
  0.333333 -0.555556 -0.000000    0.00308642  33 t-inv F
 -0.333333  0.555556  0.000000    0.00308642  33 t-inv F
 -0.555556  0.333333  0.000000    0.00308642  33 t-inv F
  0.555556 -0.333333 -0.000000    0.00308642  33 t-inv F
  0.222222 -0.555556  0.000000    0.00308642  33 t-inv F
 -0.222222  0.555556 -0.000000    0.00308642  33 t-inv F
 -0.555556  0.222222 -0.000000    0.00308642  33 t-inv F
  0.555556 -0.222222  0.000000    0.00308642  33 t-inv F
  0.222222  0.333333 -0.000000    0.00308642  33 t-inv F
 -0.222222 -0.333333  0.000000    0.00308642  33 t-inv F
 -0.388889 -0.222222 -0.000000    0.00308642  34 t-inv F
  0.388889 -0.611111 -0.000000    0.00308642  34 t-inv F
 -0.388889  0.611111  0.000000    0.00308642  34 t-inv F
  0.222222 -0.611111  0.000000    0.00308642  34 t-inv F
 -0.222222  0.611111 -0.000000    0.00308642  34 t-inv F
 -0.277778 -0.277778 -0.000000    0.00308642  35 t-inv F
  0.277778 -0.555556 -0.000000    0.00308642  35 t-inv F
 -0.277778  0.555556  0.000000    0.00308642  35 t-inv F
 -0.555556  0.277778  0.000000    0.00308642  35 t-inv F
  0.555556 -0.277778 -0.000000    0.00308642  35 t-inv F
 -0.333333 -0.277778 -0.000000    0.00308642  36 t-inv F
  0.333333 -0.611111 -0.000000    0.00308642  36 t-inv F
 -0.333333  0.611111  0.000000    0.00308642  36 t-inv F
 -0.611111  0.333333  0.000000    0.00308642  36 t-inv F
  0.611111 -0.333333 -0.000000    0.00308642  36 t-inv F
  0.277778 -0.611111  0.000000    0.00308642  36 t-inv F
 -0.277778  0.611111 -0.000000    0.00308642  36 t-inv F
 -0.611111  0.277778 -0.000000    0.00308642  36 t-inv F
  0.611111 -0.277778  0.000000    0.00308642  36 t-inv F
  0.277778  0.333333 -0.000000    0.00308642  36 t-inv F
 -0.277778 -0.333333  0.000000    0.00308642  36 t-inv F
 -0.333333 -0.333333 -0.000000    0.00308642  37 t-inv F


--------------------------------------------------------------------------------------------------------




 Dimension of arrays:
   k-points           NKPTS =     37   k-points in BZ     NKDIM =     37   number of bands    NBANDS=    112
   number of dos      NEDOS =    301   number of ions     NIONS =     18
   non local maximal  LDIM  =      8   non local SUM 2l+1 LMDIM =     26
   total plane-waves  NPLWV = 169344
   max r-space proj   IRMAX =      1   max aug-charges    IRDMAX=  18246
   dimension x,y,z NGX =    24 NGY =   24 NGZ =  294
   dimension x,y,z NGXF=    48 NGYF=   48 NGZF=  588
   support grid    NGXF=    48 NGYF=   48 NGZF=  588
   ions per type =               6  12
 NGX,Y,Z   is equivalent  to a cutoff of  11.24, 11.24,  9.78 a.u.
 NGXF,Y,Z  is equivalent  to a cutoff of  22.48, 22.48, 19.55 a.u.


 I would recommend the setting:
   dimension x,y,z NGX =    21 NGY =   21 NGZ =  290
 SYSTEM =  unknown system                          
 POSCAR =   W Te                                   

 Startparameter for this run:
   NWRITE =      2    write-flag & timer
   PREC   = accura    normal or accurate (medium, high low for compatibility)
   ISTART =      0    job   : 0-new  1-cont  2-samecut
   ICHARG =      2    charge: 1-file 2-atom 10-const
   ISPIN  =      1    spin polarized calculation?
   LNONCOLLINEAR =      F non collinear calculations
   LSORBIT =      F    spin-orbit coupling
   INIWAV =      1    electr: 0-lowe 1-rand  2-diag
   LASPH  =      F    aspherical Exc in radial PAW
   METAGGA=      F    non-selfconsistent MetaGGA calc.

 Electronic Relaxation 1
   ENCUT  =  317.1 eV  23.31 Ry    4.83 a.u.   5.15  5.15 72.60*2*pi/ulx,y,z
   ENINI  =  317.1     initial cutoff
   ENAUG  =  807.8 eV  augmentation charge cutoff
   NELM   =     60;   NELMIN=  5; NELMDL= -5     # of ELM steps 
   EDIFF  = 0.1E-07   stopping-criterion for ELM
   LREAL  =      F    real-space projection
   NLSPLINE    = F    spline interpolate recip. space projectors
   LCOMPAT=      F    compatible to vasp.4.4
   GGA_COMPAT  = T    GGA compatible to vasp.4.4-vasp.4.6
   LMAXPAW     = -100 max onsite density
   LMAXMIX     =    2 max onsite mixed and CHGCAR
   VOSKOWN=      0    Vosko Wilk Nusair interpolation
   ROPT   =    0.00000   0.00000
 Ionic relaxation
   EDIFFG = 0.1E-06   stopping-criterion for IOM
   NSW    =      0    number of steps for IOM
   NBLOCK =      1;   KBLOCK =      1    inner block; outer block 
   IBRION =     -1    ionic relax: 0-MD 1-quasi-New 2-CG
   NFREE  =      0    steps in history (QN), initial steepest desc. (CG)
   ISIF   =      2    stress and relaxation
   IWAVPR =     10    prediction:  0-non 1-charg 2-wave 3-comb
   ISYM   =      2    0-nonsym 1-usesym 2-fastsym
   LCORR  =      T    Harris-Foulkes like correction to forces

   POTIM  = 0.5000    time-step for ionic-motion
   TEIN   =    0.0    initial temperature
   TEBEG  =    0.0;   TEEND  =   0.0 temperature during run
   SMASS  =  -3.00    Nose mass-parameter (am)
   estimated Nose-frequenzy (Omega)   =  0.10E-29 period in steps =****** mass=  -0.288E-27a.u.
   SCALEE = 1.0000    scale energy and forces
   NPACO  =    256;   APACO  = 16.0  distance and # of slots for P.C.
   PSTRESS=    0.0 pullay stress

  Mass of Ions in am
   POMASS = 183.85127.60
  Ionic Valenz
   ZVAL   =  14.00  6.00
  Atomic Wigner-Seitz radii
   RWIGS  =  -1.00 -1.00
  virtual crystal weights 
   VCA    =   1.00  1.00
   NELECT =     156.0000    total number of electrons
   NUPDOWN=      -1.0000    fix difference up-down

 DOS related values:
   EMIN   =  10.00;   EMAX   =-10.00  energy-range for DOS
   EFERMI =   0.00
   ISMEAR =    -5;   SIGMA  =   0.01  broadening in eV -4-tet -1-fermi 0-gaus

 Electronic relaxation 2 (details)
   IALGO  =     38    algorithm
   LDIAG  =      T    sub-space diagonalisation (order eigenvalues)
   LSUBROT=      F    optimize rotation matrix (better conditioning)
   TURBO    =      0    0=normal 1=particle mesh
   IRESTART =      0    0=no restart 2=restart with 2 vectors
   NREBOOT  =      0    no. of reboots
   NMIN     =      0    reboot dimension
   EREF     =   0.00    reference energy to select bands
   IMIX   =      4    mixing-type and parameters
     AMIX     =   0.40;   BMIX     =  1.00
     AMIX_MAG =   1.60;   BMIX_MAG =  1.00
     AMIN     =   0.10
     WC   =   100.;   INIMIX=   1;  MIXPRE=   1;  MAXMIX= -45

 Intra band minimization:
   WEIMIN = 0.0000     energy-eigenvalue tresh-hold
   EBREAK =  0.22E-10  absolut break condition
   DEPER  =   0.30     relativ break condition  

   TIME   =   0.40     timestep for ELM

  volume/ion in A,a.u.               =      30.32       204.60
  Fermi-wavevector in a.u.,A,eV,Ry     =   1.078428  2.037933 15.823661  1.163006
  Thomas-Fermi vector in A             =   2.214366
 
 Write flags
   LWAVE  =      T    write WAVECAR
   LCHARG =      T    write CHGCAR
   LVTOT  =      F    write LOCPOT, total local potential
   LVHAR  =      F    write LOCPOT, Hartree potential only
   LELF   =      F    write electronic localiz. function (ELF)
   LORBIT =      0    0 simple, 1 ext, 2 COOP (PROOUT)


 Dipole corrections
   LMONO  =      F    monopole corrections only (constant potential shift)
   LDIPOL =      F    correct potential (dipole corrections)
   IDIPOL =      0    1-x, 2-y, 3-z, 4-all directions 
   EPSILON=  1.0000000 bulk dielectric constant

 Exchange correlation treatment:
   GGA     =    PE    GGA type
   LEXCH   =     8    internal setting for exchange type
   VOSKOWN=      0    Vosko Wilk Nusair interpolation
   LHFCALC =     F    Hartree Fock is set to
   LHFONE  =     F    Hartree Fock one center treatment
   AEXX    =    0.0000 exact exchange contribution

 Linear response parameters
   LEPSILON=     T    determine dielectric tensor
   LRPA    =     F    only Hartree local field effects (RPA)
   LNABLA  =     F    use nabla operator in PAW spheres
   LVEL    =     F    velocity operator in full k-point grid
   LINTERFAST=   F  fast interpolation
   KINTER  =     0    interpolate to denser k-point grid
   CSHIFT  =0.1000    complex shift for real part using Kramers Kronig
   OMEGAMAX=  -1.0    maximum frequency
   DEG_THRESHOLD= 0.2000000E-02 threshold for treating states as degnerate
   RTIME   =    0.100 relaxation time in fs

 Orbital magnetization related:
   ORBITALMAG=     F  switch on orbital magnetization
   LCHIMAG   =     F  perturbation theory with respect to B field
   DQ        =  0.001000  dq finite difference perturbation B field



--------------------------------------------------------------------------------------------------------


 Static calculation
 charge density and potential will be updated during run
 non-spin polarized calculation
 Variant of blocked Davidson
 Davidson routine will perform the subspace rotation
 perform sub-space diagonalisation
    after iterative eigenvector-optimisation
 modified Broyden-mixing scheme, WC =      100.0
 initial mixing is a Kerker type mixing with AMIX =  0.4000 and BMIX =      1.0000
 Hartree-type preconditioning will be used
 using additional bands           34
 reciprocal scheme for non local part
 use partial core corrections
 calculate Harris-corrections to forces 
   (improved forces if not selfconsistent)
 use gradient corrections 
 use of overlap-Matrix (Vanderbilt PP)
 Fermi weights with tetrahedron method with Bloechl corrections


--------------------------------------------------------------------------------------------------------


  energy-cutoff  :      317.13
  volume of cell :      545.73
      direct lattice vectors                 reciprocal lattice vectors
     3.550076222  0.000000000  0.000000000     0.281684093  0.162630387  0.000000000
    -1.775038111  3.074456194  0.000000000     0.000000000  0.325260774  0.000000000
     0.000000000  0.000000000 50.000000000     0.000000000  0.000000000  0.020000000

  length of vectors
     3.550076222  3.550076222 50.000000000     0.325260774  0.325260774  0.020000000


 
 k-points in units of 2pi/SCALE and weight: KPOINTS created by Atomic Simulation Env
   0.00000000  0.00000000  0.00000000       0.003
   0.01564912  0.00903502  0.00000000       0.019
   0.03129823  0.01807004  0.00000000       0.019
   0.04694735  0.02710506  0.00000000       0.019
   0.06259647  0.03614009  0.00000000       0.019
   0.07824558  0.04517511  0.00000000       0.019
   0.09389470  0.05421013  0.00000000       0.019
   0.10954381  0.06324515  0.00000000       0.019
   0.12519293  0.07228017  0.00000000       0.019
   0.14084205  0.08131519  0.00000000       0.009
   0.01564912  0.02710506  0.00000000       0.019
   0.03129823  0.03614009  0.00000000       0.037
   0.04694735  0.04517511  0.00000000       0.037
   0.06259647  0.05421013  0.00000000       0.037
   0.07824558  0.06324515  0.00000000       0.037
   0.09389470  0.07228017  0.00000000       0.037
   0.10954381  0.08131519  0.00000000       0.037
   0.12519293  0.09035021  0.00000000       0.037
   0.03129823  0.05421013  0.00000000       0.019
   0.04694735  0.06324515  0.00000000       0.037
   0.06259647  0.07228017  0.00000000       0.037
   0.07824558  0.08131519  0.00000000       0.037
   0.09389470  0.09035021  0.00000000       0.037
   0.10954381  0.09938524  0.00000000       0.037
   0.12519293  0.10842026  0.00000000       0.019
   0.04694735  0.08131519  0.00000000       0.019
   0.06259647  0.09035021  0.00000000       0.037
   0.07824558  0.09938524  0.00000000       0.037
   0.09389470  0.10842026  0.00000000       0.037
   0.10954381  0.11745528  0.00000000       0.037
   0.06259647  0.10842026  0.00000000       0.019
   0.07824558  0.11745528  0.00000000       0.037
   0.09389470  0.12649030  0.00000000       0.037
   0.10954381  0.13552532  0.00000000       0.019
   0.07824558  0.13552532  0.00000000       0.019
   0.09389470  0.14456034  0.00000000       0.037
   0.09389470  0.16263039  0.00000000       0.006
 
 k-points in reciprocal lattice and weights: KPOINTS created by Atomic Simulation Env
   0.00000000  0.00000000  0.00000000       0.003
   0.05555556  0.00000000  0.00000000       0.019
   0.11111111  0.00000000  0.00000000       0.019
   0.16666667  0.00000000  0.00000000       0.019
   0.22222222  0.00000000  0.00000000       0.019
   0.27777778  0.00000000  0.00000000       0.019
   0.33333333  0.00000000  0.00000000       0.019
   0.38888889  0.00000000  0.00000000       0.019
   0.44444444  0.00000000  0.00000000       0.019
   0.50000000  0.00000000  0.00000000       0.009
   0.05555556  0.05555556  0.00000000       0.019
   0.11111111  0.05555556  0.00000000       0.037
   0.16666667  0.05555556  0.00000000       0.037
   0.22222222  0.05555556  0.00000000       0.037
   0.27777778  0.05555556  0.00000000       0.037
   0.33333333  0.05555556  0.00000000       0.037
   0.38888889  0.05555556  0.00000000       0.037
   0.44444444  0.05555556  0.00000000       0.037
   0.11111111  0.11111111  0.00000000       0.019
   0.16666667  0.11111111  0.00000000       0.037
   0.22222222  0.11111111  0.00000000       0.037
   0.27777778  0.11111111  0.00000000       0.037
   0.33333333  0.11111111  0.00000000       0.037
   0.38888889  0.11111111  0.00000000       0.037
   0.44444444  0.11111111  0.00000000       0.019
   0.16666667  0.16666667  0.00000000       0.019
   0.22222222  0.16666667  0.00000000       0.037
   0.27777778  0.16666667  0.00000000       0.037
   0.33333333  0.16666667  0.00000000       0.037
   0.38888889  0.16666667  0.00000000       0.037
   0.22222222  0.22222222  0.00000000       0.019
   0.27777778  0.22222222  0.00000000       0.037
   0.33333333  0.22222222  0.00000000       0.037
   0.38888889  0.22222222  0.00000000       0.019
   0.27777778  0.27777778  0.00000000       0.019
   0.33333333  0.27777778  0.00000000       0.037
   0.33333333  0.33333333  0.00000000       0.006
 
 position of ions in fractional coordinates (direct lattice) 
   0.16666667  0.33333333  0.14700000
   0.83333333  0.66666667  0.28820000
   0.16666667  0.33333333  0.42940000
   0.83333333  0.66666667  0.57060000
   0.16666667  0.33333333  0.71180000
   0.83333333  0.66666667  0.85300000
   0.83333333  0.66666667  0.18323924
   0.83333333  0.66666667  0.11076076
   0.16666667  0.33333333  0.32443924
   0.16666667  0.33333333  0.25196076
   0.83333333  0.66666667  0.46563924
   0.83333333  0.66666667  0.39316076
   0.16666667  0.33333333  0.60683924
   0.16666667  0.33333333  0.53436076
   0.83333333  0.66666667  0.74803924
   0.83333333  0.66666667  0.67556076
   0.16666667  0.33333333  0.88923924
   0.16666667  0.33333333  0.81676076
 
 position of ions in cartesian coordinates  (Angst):
  -0.00000000  1.02481873  7.35000000
   1.77503811  2.04963746 14.41000000
  -0.00000000  1.02481873 21.47000000
   1.77503811  2.04963746 28.53000000
  -0.00000000  1.02481873 35.59000000
   1.77503811  2.04963746 42.65000000
   1.77503811  2.04963746  9.16196221
   1.77503811  2.04963746  5.53803779
  -0.00000000  1.02481873 16.22196221
  -0.00000000  1.02481873 12.59803779
   1.77503811  2.04963746 23.28196221
   1.77503811  2.04963746 19.65803779
  -0.00000000  1.02481873 30.34196221
  -0.00000000  1.02481873 26.71803779
   1.77503811  2.04963746 37.40196221
   1.77503811  2.04963746 33.77803779
  -0.00000000  1.02481873 44.46196221
  -0.00000000  1.02481873 40.83803779
 


--------------------------------------------------------------------------------------------------------


 k-point  1 :   0.0000 0.0000 0.0000  plane waves:    6937
 k-point  2 :   0.0556 0.0000 0.0000  plane waves:    6949
 k-point  3 :   0.1111 0.0000 0.0000  plane waves:    6915
 k-point  4 :   0.1667 0.0000 0.0000  plane waves:    6927
 k-point  5 :   0.2222 0.0000 0.0000  plane waves:    6983
 k-point  6 :   0.2778 0.0000 0.0000  plane waves:    7013
 k-point  7 :   0.3333 0.0000 0.0000  plane waves:    7017
 k-point  8 :   0.3889 0.0000 0.0000  plane waves:    7031
 k-point  9 :   0.4444 0.0000 0.0000  plane waves:    7031
 k-point 10 :   0.5000 0.0000 0.0000  plane waves:    7042
 k-point 11 :   0.0556 0.0556 0.0000  plane waves:    6931
 k-point 12 :   0.1111 0.0556 0.0000  plane waves:    6925
 k-point 13 :   0.1667 0.0556 0.0000  plane waves:    6950
 k-point 14 :   0.2222 0.0556 0.0000  plane waves:    7000
 k-point 15 :   0.2778 0.0556 0.0000  plane waves:    7018
 k-point 16 :   0.3333 0.0556 0.0000  plane waves:    7028
 k-point 17 :   0.3889 0.0556 0.0000  plane waves:    7035
 k-point 18 :   0.4444 0.0556 0.0000  plane waves:    7024
 k-point 19 :   0.1111 0.1111 0.0000  plane waves:    6963
 k-point 20 :   0.1667 0.1111 0.0000  plane waves:    6972
 k-point 21 :   0.2222 0.1111 0.0000  plane waves:    6994
 k-point 22 :   0.2778 0.1111 0.0000  plane waves:    7025
 k-point 23 :   0.3333 0.1111 0.0000  plane waves:    7033
 k-point 24 :   0.3889 0.1111 0.0000  plane waves:    7033
 k-point 25 :   0.4444 0.1111 0.0000  plane waves:    7024
 k-point 26 :   0.1667 0.1667 0.0000  plane waves:    6971
 k-point 27 :   0.2222 0.1667 0.0000  plane waves:    7005
 k-point 28 :   0.2778 0.1667 0.0000  plane waves:    7005
 k-point 29 :   0.3333 0.1667 0.0000  plane waves:    7024
 k-point 30 :   0.3889 0.1667 0.0000  plane waves:    7005
 k-point 31 :   0.2222 0.2222 0.0000  plane waves:    7015
 k-point 32 :   0.2778 0.2222 0.0000  plane waves:    7013
 k-point 33 :   0.3333 0.2222 0.0000  plane waves:    7014
 k-point 34 :   0.3889 0.2222 0.0000  plane waves:    6993
 k-point 35 :   0.2778 0.2778 0.0000  plane waves:    7009
 k-point 36 :   0.3333 0.2778 0.0000  plane waves:    6982
 k-point 37 :   0.3333 0.3333 0.0000  plane waves:    6969

 maximum and minimum number of plane-waves per node :      7042     6915

 maximum number of plane-waves:      7042
 maximum index in each direction: 
   IXMAX=    5   IYMAX=    5   IZMAX=   72
   IXMIN=   -5   IYMIN=   -5   IZMIN=  -72

 NGX is ok and might be reduce to  22
 NGY is ok and might be reduce to  22
 NGZ is ok and might be reduce to 290

 serial   3D FFT for wavefunctions
 parallel 3D FFT for charge:
    minimum data exchange during FFTs selected (reduces bandwidth)


 total amount of memory used by VASP on root node   171326. kBytes
========================================================================

   base      :      30000. kBytes
   nonl-proj :     110638. kBytes
   fftplans  :       2517. kBytes
   grid      :       9951. kBytes
   one-center:        584. kBytes
   wavefun   :      17636. kBytes
 
     INWAV:  cpu time    0.0000: real time    0.0000
 Broyden mixing: mesh for mixing (old mesh)
   NGX = 11   NGY = 11   NGZ =145
  (NGX  = 48   NGY  = 48   NGZ  =588)
  gives a total of  17545 points

 initial charge density was supplied:
 charge density of overlapping atoms calculated
 number of electron     156.0000000 magnetization 
 keeping initial charge density in first step


--------------------------------------------------------------------------------------------------------


 Maximum index for augmentation-charges          992 (set IRDMAX)


--------------------------------------------------------------------------------------------------------


 First call to EWALD:  gamma=   0.217
 Maximum number of real-space cells 6x 6x 1
 Maximum number of reciprocal cells 1x 1x14

 FEWALD executed in parallel
    FEWALD:  cpu time    0.0010: real time    0.0013


----------------------------------------- Iteration    1(   1)  ---------------------------------------


    POTLOK:  cpu time    0.0420: real time    0.0426
    SETDIJ:  cpu time    0.0090: real time    0.0087
     EDDAV:  cpu time   11.2493: real time   11.2664
 BZINTS: Fermi energy: 15.924699;156.000000 electrons
         Band energy:-421.240511;  BLOECHL correction: -0.057023
       DOS:  cpu time    0.0340: real time    0.0338
    --------------------------------------------
      LOOP:  cpu time   11.3353: real time   11.3537

 eigenvalue-minimisations  :  9996
 total energy-change (2. order) : 0.1153652E+04  (-0.6157541E+04)
 number of electron     156.0000000 magnetization 
 augmentation part      156.0000000 magnetization 

 Free energy of the ion-electron system (eV)
  ---------------------------------------------------
  alpha Z        PSCENC =       271.77797281
  Ewald energy   TEWEN  =     12891.27443711
  -Hartree energ DENC   =    -26068.34952284
  -exchange      EXHF   =         0.00000000
  -V(xc)+E(xc)   XCENC  =      -446.07320223
  PAW double counting   =     11841.26812267   -10776.21746159
  entropy T*S    EENTRO =         0.00000000
  eigenvalues    EBANDS =      -421.24051062
  atomic energy  EATOM  =     13861.21247687
  Solvation  Ediel_sol  =         0.00000000
  ---------------------------------------------------
  free energy    TOTEN  =      1153.65231218 eV

  energy without entropy =     1153.65231218  energy(sigma->0) =     1153.65231218


--------------------------------------------------------------------------------------------------------




----------------------------------------- Iteration    1(   2)  ---------------------------------------


     EDDAV:  cpu time   13.6569: real time   13.6761
 BZINTS: Fermi energy:  7.893013;156.000000 electrons
         Band energy:***********;  BLOECHL correction:  0.000000
       DOS:  cpu time    0.0070: real time    0.0069
    --------------------------------------------
      LOOP:  cpu time   13.6679: real time   13.6888

 eigenvalue-minimisations  : 12572
 total energy-change (2. order) :-0.1198422E+04  (-0.1163999E+04)
 number of electron     156.0000000 magnetization 
 augmentation part      156.0000000 magnetization 

 Free energy of the ion-electron system (eV)
  ---------------------------------------------------
  alpha Z        PSCENC =       271.77797281
  Ewald energy   TEWEN  =     12891.27443711
  -Hartree energ DENC   =    -26068.34952284
  -exchange      EXHF   =         0.00000000
  -V(xc)+E(xc)   XCENC  =      -446.07320223
  PAW double counting   =     11841.26812267   -10776.21746159
  entropy T*S    EENTRO =         0.00000000
  eigenvalues    EBANDS =     -1619.66214653
  atomic energy  EATOM  =     13861.21247687
  Solvation  Ediel_sol  =         0.00000000
  ---------------------------------------------------
  free energy    TOTEN  =       -44.76932373 eV

  energy without entropy =      -44.76932373  energy(sigma->0) =      -44.76932373


--------------------------------------------------------------------------------------------------------




----------------------------------------- Iteration    1(   3)  ---------------------------------------


     EDDAV:  cpu time   12.8340: real time   12.8471
 BZINTS: Fermi energy:  7.058670;156.000000 electrons
         Band energy:***********;  BLOECHL correction:  0.000000
       DOS:  cpu time    0.0060: real time    0.0066
    --------------------------------------------
      LOOP:  cpu time   12.8410: real time   12.8596

 eigenvalue-minimisations  : 11032
 total energy-change (2. order) :-0.9122074E+02  (-0.8972733E+02)
 number of electron     156.0000000 magnetization 
 augmentation part      156.0000000 magnetization 

 Free energy of the ion-electron system (eV)
  ---------------------------------------------------
  alpha Z        PSCENC =       271.77797281
  Ewald energy   TEWEN  =     12891.27443711
  -Hartree energ DENC   =    -26068.34952284
  -exchange      EXHF   =         0.00000000
  -V(xc)+E(xc)   XCENC  =      -446.07320223
  PAW double counting   =     11841.26812267   -10776.21746159
  entropy T*S    EENTRO =         0.00000000
  eigenvalues    EBANDS =     -1710.88288354
  atomic energy  EATOM  =     13861.21247687
  Solvation  Ediel_sol  =         0.00000000
  ---------------------------------------------------
  free energy    TOTEN  =      -135.99006074 eV

  energy without entropy =     -135.99006074  energy(sigma->0) =     -135.99006074


--------------------------------------------------------------------------------------------------------




----------------------------------------- Iteration    1(   4)  ---------------------------------------


     EDDAV:  cpu time   14.9267: real time   14.9433
 BZINTS: Fermi energy:  6.893145;156.000000 electrons
         Band energy:***********;  BLOECHL correction:  0.000000
       DOS:  cpu time    0.0070: real time    0.0065
    --------------------------------------------
      LOOP:  cpu time   14.9347: real time   14.9535

 eigenvalue-minimisations  : 13104
 total energy-change (2. order) :-0.3783217E+01  (-0.3763951E+01)
 number of electron     156.0000000 magnetization 
 augmentation part      156.0000000 magnetization 

 Free energy of the ion-electron system (eV)
  ---------------------------------------------------
  alpha Z        PSCENC =       271.77797281
  Ewald energy   TEWEN  =     12891.27443711
  -Hartree energ DENC   =    -26068.34952284
  -exchange      EXHF   =         0.00000000
  -V(xc)+E(xc)   XCENC  =      -446.07320223
  PAW double counting   =     11841.26812267   -10776.21746159
  entropy T*S    EENTRO =         0.00000000
  eigenvalues    EBANDS =     -1714.66610043
  atomic energy  EATOM  =     13861.21247687
  Solvation  Ediel_sol  =         0.00000000
  ---------------------------------------------------
  free energy    TOTEN  =      -139.77327763 eV

  energy without entropy =     -139.77327763  energy(sigma->0) =     -139.77327763


--------------------------------------------------------------------------------------------------------




----------------------------------------- Iteration    1(   5)  ---------------------------------------


     EDDAV:  cpu time   13.1290: real time   13.1448
 BZINTS: Fermi energy:  6.854464;156.000000 electrons
         Band energy:***********;  BLOECHL correction:  0.000000
       DOS:  cpu time    0.0070: real time    0.0065
    CHARGE:  cpu time    0.4969: real time    0.4974
    MIXING:  cpu time    0.0020: real time    0.0016
    --------------------------------------------
      LOOP:  cpu time   13.6359: real time   13.6530

 eigenvalue-minimisations  : 11004
 total energy-change (2. order) :-0.5519214E-01  (-0.5515255E-01)
 number of electron     155.9999980 magnetization 
 augmentation part      -27.1433576 magnetization 

 Broyden mixing:
  rms(total) = 0.19129E+02    rms(broyden)= 0.19129E+02
  rms(prec ) = 0.19133E+02
  weight for this iteration     100.00

 Free energy of the ion-electron system (eV)
  ---------------------------------------------------
  alpha Z        PSCENC =       271.77797281
  Ewald energy   TEWEN  =     12891.27443711
  -Hartree energ DENC   =    -26068.34952284
  -exchange      EXHF   =         0.00000000
  -V(xc)+E(xc)   XCENC  =      -446.07320223
  PAW double counting   =     11841.26812267   -10776.21746159
  entropy T*S    EENTRO =         0.00000000
  eigenvalues    EBANDS =     -1714.72129258
  atomic energy  EATOM  =     13861.21247687
  Solvation  Ediel_sol  =         0.00000000
  ---------------------------------------------------
  free energy    TOTEN  =      -139.82846978 eV

  energy without entropy =     -139.82846978  energy(sigma->0) =     -139.82846978


--------------------------------------------------------------------------------------------------------




----------------------------------------- Iteration    1(   6)  ---------------------------------------


    POTLOK:  cpu time    0.0390: real time    0.0391
    SETDIJ:  cpu time    0.0090: real time    0.0087
     EDDAV:  cpu time   12.0732: real time   12.0841
 BZINTS: Fermi energy:  5.690889;156.000000 electrons
         Band energy:***********;  BLOECHL correction:  0.000000
       DOS:  cpu time    0.0060: real time    0.0059
    CHARGE:  cpu time    0.5139: real time    0.5137
    MIXING:  cpu time    0.0020: real time    0.0016
    --------------------------------------------
      LOOP:  cpu time   12.6431: real time   12.6555

 eigenvalue-minimisations  : 10192
 total energy-change (2. order) : 0.8524530E+01  (-0.3979590E+01)
 number of electron     155.9999982 magnetization 
 augmentation part      -25.3906135 magnetization 

 Broyden mixing:
  rms(total) = 0.16375E+02    rms(broyden)= 0.16375E+02
  rms(prec ) = 0.16378E+02
  weight for this iteration     100.00

 eigenvalues of (default mixing * dielectric matrix)
  average eigenvalue GAMMA=   4.5819
  4.5819

 Free energy of the ion-electron system (eV)
  ---------------------------------------------------
  alpha Z        PSCENC =       271.77797281
  Ewald energy   TEWEN  =     12891.27443711
  -Hartree energ DENC   =    -25847.50459942
  -exchange      EXHF   =         0.00000000
  -V(xc)+E(xc)   XCENC  =      -451.21302415
  PAW double counting   =     14159.29349161   -13102.42728403
  entropy T*S    EENTRO =         0.00000000
  eigenvalues    EBANDS =     -1913.71741069
  atomic energy  EATOM  =     13861.21247687
  Solvation  Ediel_sol  =         0.00000000
  ---------------------------------------------------
  free energy    TOTEN  =      -131.30393989 eV

  energy without entropy =     -131.30393989  energy(sigma->0) =     -131.30393989


--------------------------------------------------------------------------------------------------------




----------------------------------------- Iteration    1(   7)  ---------------------------------------


    POTLOK:  cpu time    0.0390: real time    0.0404
    SETDIJ:  cpu time    0.0090: real time    0.0087
     EDDAV:  cpu time   12.3521: real time   12.3617
 BZINTS: Fermi energy:  8.777176;156.000000 electrons
         Band energy:***********;  BLOECHL correction: -0.006337
       DOS:  cpu time    0.0310: real time    0.0308
    CHARGE:  cpu time    0.5239: real time    0.5244
    MIXING:  cpu time    0.0020: real time    0.0017
    --------------------------------------------
      LOOP:  cpu time   12.9580: real time   12.9705

 eigenvalue-minimisations  : 10556
 total energy-change (2. order) :-0.5098583E+02  (-0.1942010E+02)
 number of electron     155.9999980 magnetization 
 augmentation part      -27.7387045 magnetization 

 Broyden mixing:
  rms(total) = 0.19489E+02    rms(broyden)= 0.19489E+02
  rms(prec ) = 0.19520E+02
  weight for this iteration     100.00

 eigenvalues of (default mixing * dielectric matrix)
  average eigenvalue GAMMA=   1.5530
  0.8206  2.2853

 Free energy of the ion-electron system (eV)
  ---------------------------------------------------
  alpha Z        PSCENC =       271.77797281
  Ewald energy   TEWEN  =     12891.27443711
  -Hartree energ DENC   =    -26345.10519912
  -exchange      EXHF   =         0.00000000
  -V(xc)+E(xc)   XCENC  =      -445.55501414
  PAW double counting   =     24803.34334981   -23718.91745648
  entropy T*S    EENTRO =         0.00000000
  eigenvalues    EBANDS =     -1500.32033638
  atomic energy  EATOM  =     13861.21247687
  Solvation  Ediel_sol  =         0.00000000
  ---------------------------------------------------
  free energy    TOTEN  =      -182.28976952 eV

  energy without entropy =     -182.28976952  energy(sigma->0) =     -182.28976952


--------------------------------------------------------------------------------------------------------




----------------------------------------- Iteration    1(   8)  ---------------------------------------


    POTLOK:  cpu time    0.0420: real time    0.0426
    SETDIJ:  cpu time    0.0080: real time    0.0088
     EDDAV:  cpu time   11.5182: real time   11.5328
 BZINTS: Fermi energy:  6.295879;156.000000 electrons
         Band energy:***********;  BLOECHL correction:  0.000000
       DOS:  cpu time    0.0070: real time    0.0067
    CHARGE:  cpu time    0.5089: real time    0.5090
    MIXING:  cpu time    0.0000: real time    0.0017
    --------------------------------------------
      LOOP:  cpu time   12.0852: real time   12.1067

 eigenvalue-minimisations  :  9772
 total energy-change (2. order) : 0.5533434E+02  (-0.1394616E+02)
 number of electron     155.9999983 magnetization 
 augmentation part      -25.8712333 magnetization 

 Broyden mixing:
  rms(total) = 0.50189E+00    rms(broyden)= 0.50174E+00
  rms(prec ) = 0.50599E+00
  weight for this iteration     100.00

 eigenvalues of (default mixing * dielectric matrix)
  average eigenvalue GAMMA=   1.3043
  2.4548  0.7291  0.7291

 Free energy of the ion-electron system (eV)
  ---------------------------------------------------
  alpha Z        PSCENC =       271.77797281
  Ewald energy   TEWEN  =     12891.27443711
  -Hartree energ DENC   =    -25901.09925541
  -exchange      EXHF   =         0.00000000
  -V(xc)+E(xc)   XCENC  =      -451.10780106
  PAW double counting   =     18511.05058810   -17445.32036937
  entropy T*S    EENTRO =         0.00000000
  eigenvalues    EBANDS =     -1864.74347386
  atomic energy  EATOM  =     13861.21247687
  Solvation  Ediel_sol  =         0.00000000
  ---------------------------------------------------
  free energy    TOTEN  =      -126.95542481 eV

  energy without entropy =     -126.95542481  energy(sigma->0) =     -126.95542481


--------------------------------------------------------------------------------------------------------




----------------------------------------- Iteration    1(   9)  ---------------------------------------


    POTLOK:  cpu time    0.0400: real time    0.0401
    SETDIJ:  cpu time    0.0080: real time    0.0088
     EDDAV:  cpu time   13.1400: real time   13.1501
 BZINTS: Fermi energy:  5.937895;156.000000 electrons
         Band energy:***********;  BLOECHL correction:  0.000000
       DOS:  cpu time    0.0060: real time    0.0068
    CHARGE:  cpu time    0.5169: real time    0.5178
    MIXING:  cpu time    0.0020: real time    0.0017
    --------------------------------------------
      LOOP:  cpu time   13.7149: real time   13.7285

 eigenvalue-minimisations  : 11340
 total energy-change (2. order) :-0.2022898E+01  (-0.2176571E+01)
 number of electron     155.9999982 magnetization 
 augmentation part      -25.8693590 magnetization 

 Broyden mixing:
  rms(total) = 0.13387E+01    rms(broyden)= 0.13387E+01
  rms(prec ) = 0.13390E+01
  weight for this iteration     100.00

 eigenvalues of (default mixing * dielectric matrix)
  average eigenvalue GAMMA=   1.0810
  2.3110  0.8456  0.8456  0.3218

 Free energy of the ion-electron system (eV)
  ---------------------------------------------------
  alpha Z        PSCENC =       271.77797281
  Ewald energy   TEWEN  =     12891.27443711
  -Hartree energ DENC   =    -25902.42880168
  -exchange      EXHF   =         0.00000000
  -V(xc)+E(xc)   XCENC  =      -451.29556574
  PAW double counting   =     18896.41678169   -17830.85556137
  entropy T*S    EENTRO =         0.00000000
  eigenvalues    EBANDS =     -1865.08006233
  atomic energy  EATOM  =     13861.21247687
  Solvation  Ediel_sol  =         0.00000000
  ---------------------------------------------------
  free energy    TOTEN  =      -128.97832263 eV

  energy without entropy =     -128.97832263  energy(sigma->0) =     -128.97832263


--------------------------------------------------------------------------------------------------------




----------------------------------------- Iteration    1(  10)  ---------------------------------------


    POTLOK:  cpu time    0.0400: real time    0.0404
    SETDIJ:  cpu time    0.0080: real time    0.0087
     EDDAV:  cpu time   14.3648: real time   14.3800
 BZINTS: Fermi energy:  5.934849;156.000000 electrons
         Band energy:***********;  BLOECHL correction:  0.000000
       DOS:  cpu time    0.0060: real time    0.0068
    CHARGE:  cpu time    0.5099: real time    0.5104
    MIXING:  cpu time    0.0010: real time    0.0017
    --------------------------------------------
      LOOP:  cpu time   14.9317: real time   14.9543

 eigenvalue-minimisations  : 12544
 total energy-change (2. order) :-0.4604188E-01  (-0.6468396E-01)
 number of electron     155.9999982 magnetization 
 augmentation part      -25.8665093 magnetization 

 Broyden mixing:
  rms(total) = 0.11220E+01    rms(broyden)= 0.11220E+01
  rms(prec ) = 0.11225E+01
  weight for this iteration     100.00

 eigenvalues of (default mixing * dielectric matrix)
  average eigenvalue GAMMA=   0.9547
  2.2307  0.8466  0.8466  0.4249  0.4249

 Free energy of the ion-electron system (eV)
  ---------------------------------------------------
  alpha Z        PSCENC =       271.77797281
  Ewald energy   TEWEN  =     12891.27443711
  -Hartree energ DENC   =    -25905.47564545
  -exchange      EXHF   =         0.00000000
  -V(xc)+E(xc)   XCENC  =      -451.22390376
  PAW double counting   =     18568.00210765   -17502.25064894
  entropy T*S    EENTRO =         0.00000000
  eigenvalues    EBANDS =     -1862.34116080
  atomic energy  EATOM  =     13861.21247687
  Solvation  Ediel_sol  =         0.00000000
  ---------------------------------------------------
  free energy    TOTEN  =      -129.02436451 eV

  energy without entropy =     -129.02436451  energy(sigma->0) =     -129.02436451


--------------------------------------------------------------------------------------------------------




----------------------------------------- Iteration    1(  11)  ---------------------------------------


    POTLOK:  cpu time    0.0400: real time    0.0405
    SETDIJ:  cpu time    0.0090: real time    0.0086
     EDDAV:  cpu time   13.9019: real time   13.9194
 BZINTS: Fermi energy:  5.982987;156.000000 electrons
         Band energy:***********;  BLOECHL correction:  0.000000
       DOS:  cpu time    0.0060: real time    0.0059
    CHARGE:  cpu time    0.5159: real time    0.5162
    MIXING:  cpu time    0.0010: real time    0.0016
    --------------------------------------------
      LOOP:  cpu time   14.4748: real time   14.4952

 eigenvalue-minimisations  : 12068
 total energy-change (2. order) : 0.1782497E-01  (-0.1464980E-02)
 number of electron     155.9999982 magnetization 
 augmentation part      -25.8732414 magnetization 

 Broyden mixing:
  rms(total) = 0.81500E+00    rms(broyden)= 0.81500E+00
  rms(prec ) = 0.81551E+00
  weight for this iteration     100.00

 eigenvalues of (default mixing * dielectric matrix)
  average eigenvalue GAMMA=   1.0919
  2.2609  1.0684  1.0684  0.8384  0.8384  0.4769

 Free energy of the ion-electron system (eV)
  ---------------------------------------------------
  alpha Z        PSCENC =       271.77797281
  Ewald energy   TEWEN  =     12891.27443711
  -Hartree energ DENC   =    -25908.80779898
  -exchange      EXHF   =         0.00000000
  -V(xc)+E(xc)   XCENC  =      -451.16035982
  PAW double counting   =     18395.36956859   -17329.39929951
  entropy T*S    EENTRO =         0.00000000
  eigenvalues    EBANDS =     -1859.27353662
  atomic energy  EATOM  =     13861.21247687
  Solvation  Ediel_sol  =         0.00000000
  ---------------------------------------------------
  free energy    TOTEN  =      -129.00653953 eV

  energy without entropy =     -129.00653953  energy(sigma->0) =     -129.00653953


--------------------------------------------------------------------------------------------------------




----------------------------------------- Iteration    1(  12)  ---------------------------------------


    POTLOK:  cpu time    0.0400: real time    0.0405
    SETDIJ:  cpu time    0.0080: real time    0.0086
     EDDAV:  cpu time   13.7989: real time   13.8114
 BZINTS: Fermi energy:  6.011618;156.000000 electrons
         Band energy:***********;  BLOECHL correction:  0.000000
       DOS:  cpu time    0.0060: real time    0.0059
    CHARGE:  cpu time    0.5239: real time    0.5259
    MIXING:  cpu time    0.0020: real time    0.0017
    --------------------------------------------
      LOOP:  cpu time   14.3808: real time   14.3968

 eigenvalue-minimisations  : 11984
 total energy-change (2. order) : 0.2031330E-01  (-0.9862253E-03)
 number of electron     155.9999982 magnetization 
 augmentation part      -25.8672192 magnetization 

 Broyden mixing:
  rms(total) = 0.49623E+00    rms(broyden)= 0.49623E+00
  rms(prec ) = 0.49681E+00
  weight for this iteration     100.00

 eigenvalues of (default mixing * dielectric matrix)
  average eigenvalue GAMMA=   1.2223
  2.1482  2.1482  1.3146  0.8399  0.8399  0.6326  0.6326

 Free energy of the ion-electron system (eV)
  ---------------------------------------------------
  alpha Z        PSCENC =       271.77797281
  Ewald energy   TEWEN  =     12891.27443711
  -Hartree energ DENC   =    -25915.16602698
  -exchange      EXHF   =         0.00000000
  -V(xc)+E(xc)   XCENC  =      -451.07762355
  PAW double counting   =     18122.79292893   -17056.21115355
  entropy T*S    EENTRO =         0.00000000
  eigenvalues    EBANDS =     -1853.58923788
  atomic energy  EATOM  =     13861.21247687
  Solvation  Ediel_sol  =         0.00000000
  ---------------------------------------------------
  free energy    TOTEN  =      -128.98622623 eV

  energy without entropy =     -128.98622623  energy(sigma->0) =     -128.98622623


--------------------------------------------------------------------------------------------------------




----------------------------------------- Iteration    1(  13)  ---------------------------------------


    POTLOK:  cpu time    0.0420: real time    0.0423
    SETDIJ:  cpu time    0.0080: real time    0.0087
     EDDAV:  cpu time   12.3131: real time   12.3191
 BZINTS: Fermi energy:  6.039513;156.000000 electrons
[...]

  energy without entropy =       -4.87656554


----------------------------------------- Iteration    3(  22)  ---------------------------------------


   POT+DIJ:  cpu time    0.0990: real time    0.0995
    HAMIL1:  cpu time    2.5406: real time    2.5421
    LRDIAG:  cpu time    0.4359: real time    0.4361
    LRDIIS:  cpu time    9.2816: real time    9.2923
    LRDIAG:  cpu time    0.4259: real time    0.4259
    MIXING:  cpu time    0.0030: real time    0.0031
    --------------------------------------------
      LOOP:  cpu time   13.9239: real time   13.9415

 Broyden mixing:
  rms(total) = 0.17832E-05    rms(broyden)= 0.17832E-05
  rms(prec ) = 0.17874E-05
  weight for this iteration     100.00

 eigenvalues of (default mixing * dielectric matrix)
  average eigenvalue GAMMA=   1.8275
  6.6075  4.3813  3.2591  3.0364  2.7006  2.2353  1.8897  1.8897  1.5612  1.0583
  1.0583  1.0325  0.9712  0.8965  0.7905  0.6853  0.6304  0.6149  0.5948  0.6575

 Free energy of the ion-electron system (eV)
  ---------------------------------------------------
  -Hartree energ DENC   =        -2.79999981
  -V(xc)+E(xc)   XCENC  =         0.09579187
  PAW double counting   =         0.24302871       -0.24010758
  entropy T*S    EENTRO =         0.00000000
  eigenvalues    EBANDS =        -2.17473557
  ---------------------------------------------------
  free energy    TOTEN  =        -4.87602238 eV

  energy without entropy =       -4.87602238


----------------------------------------- Iteration    3(  23)  ---------------------------------------


   POT+DIJ:  cpu time    0.0990: real time    0.0993
    HAMIL1:  cpu time    2.5366: real time    2.5394
    LRDIAG:  cpu time    0.4299: real time    0.4303
    LRDIIS:  cpu time    9.2566: real time    9.2597
    LRDIAG:  cpu time    0.4269: real time    0.4268
    MIXING:  cpu time    0.0030: real time    0.0031
    --------------------------------------------
      LOOP:  cpu time   13.8969: real time   13.9051

 Broyden mixing:
  rms(total) = 0.55857E-06    rms(broyden)= 0.55854E-06
  rms(prec ) = 0.55959E-06
  weight for this iteration     100.00

 eigenvalues of (default mixing * dielectric matrix)
  average eigenvalue GAMMA=   1.8017
  6.6079  4.3773  3.2059  3.0572  2.8492  2.4448  1.9899  1.9899  1.5741  1.0581
  1.0581  1.0143  1.0143  0.9402  0.7922  0.7131  0.6851  0.5940  0.6316  0.6156
  0.6230

 Free energy of the ion-electron system (eV)
  ---------------------------------------------------
  -Hartree energ DENC   =        -2.79999939
  -V(xc)+E(xc)   XCENC  =         0.09579172
  PAW double counting   =         0.24302837       -0.24010723
  entropy T*S    EENTRO =         0.00000000
  eigenvalues    EBANDS =        -2.17441410
  ---------------------------------------------------
  free energy    TOTEN  =        -4.87570063 eV

  energy without entropy =       -4.87570063


------------------------ aborting loop because EDIFF is reached ----------------------------------------


 change of polarisation eV/A/(eV/A) component  3 :    -0.013     0.009     9.435
 dielectric tensor                  component  3 :    -0.004     0.003     4.129


--------------------------------------------------------------------------------------------------------


    FORLOC:  cpu time    0.0050: real time    0.0056
    FORNL :  cpu time    3.0955: real time    3.0944
    STRESS:  cpu time    6.1071: real time    6.1075
    FORCOR:  cpu time    0.0420: real time    0.0422
    OFIELD:  cpu time    0.0000: real time    0.0003

  Hirshfeld charges:
            ion         q(e)     
   ------------------------------
      1     W           0.216
      2     W           0.215
      3     W           0.215
      4     W           0.215
      5     W           0.215
      6     W           0.216
      7     Te         -0.108
      8     Te         -0.108
      9     Te         -0.107
     10     Te         -0.107
     11     Te         -0.107
     12     Te         -0.107
     13     Te         -0.107
     14     Te         -0.107
     15     Te         -0.107
     16     Te         -0.107
     17     Te         -0.108
     18     Te         -0.108

  Tkatchenko/Scheffler method for vdW energy calculation
  ---------------------------------------------------------------------------------------------

  Parameters of vdW forcefield:
            C6ts              R0ts           ALPHAts        RELVOL
            (au)              (au)            (au)                
   ---------------------------------------------------------------
   W         919.826          4.138         73.991          1.042
   W         923.355          4.140         74.133          1.044
   W         923.364          4.140         74.133          1.044
   W         923.364          4.140         74.133          1.044
   W         923.355          4.140         74.133          1.044
   W         919.826          4.138         73.991          1.042
   Te        408.976          4.237         38.262          1.016
   Te        401.513          4.224         37.911          1.007
   Te        408.996          4.237         38.263          1.016
   Te        408.968          4.237         38.261          1.016
   Te        408.996          4.237         38.263          1.016
   Te        408.995          4.237         38.263          1.016
   Te        408.995          4.237         38.263          1.016
   Te        408.996          4.237         38.263          1.016
   Te        408.969          4.237         38.261          1.016
   Te        408.996          4.237         38.263          1.016
   Te        401.514          4.224         37.911          1.007
   Te        408.975          4.237         38.262          1.016
  Edisp (eV):   -5.77548
    FORVDW:  cpu time    0.7359: real time    0.7360
    FORLOC:  cpu time    0.0060: real time    0.0059
    FORNL :  cpu time    3.0935: real time    3.0945
    STRESS:  cpu time    6.1551: real time    6.1555
    FORCOR:  cpu time    0.0400: real time    0.0401
    OFIELD:  cpu time    0.0010: real time    0.0003

  Hirshfeld charges:
            ion         q(e)     
   ------------------------------
      1     W           0.216
      2     W           0.215
      3     W           0.215
      4     W           0.215
      5     W           0.215
      6     W           0.216
      7     Te         -0.108
      8     Te         -0.108
      9     Te         -0.107
     10     Te         -0.107
     11     Te         -0.107
     12     Te         -0.107
     13     Te         -0.107
     14     Te         -0.107
     15     Te         -0.107
     16     Te         -0.107
     17     Te         -0.108
     18     Te         -0.108

  Tkatchenko/Scheffler method for vdW energy calculation
  ---------------------------------------------------------------------------------------------

  Parameters of vdW forcefield:
            C6ts              R0ts           ALPHAts        RELVOL
            (au)              (au)            (au)                
   ---------------------------------------------------------------
   W         919.826          4.138         73.991          1.042
   W         923.355          4.140         74.133          1.044
   W         923.364          4.140         74.133          1.044
   W         923.364          4.140         74.133          1.044
   W         923.355          4.140         74.133          1.044
   W         919.826          4.138         73.991          1.042
   Te        408.975          4.237         38.262          1.016
   Te        401.514          4.224         37.911          1.007
   Te        408.996          4.237         38.263          1.016
   Te        408.969          4.237         38.261          1.016
   Te        408.996          4.237         38.263          1.016
   Te        408.995          4.237         38.263          1.016
   Te        408.995          4.237         38.263          1.016
   Te        408.996          4.237         38.263          1.016
   Te        408.968          4.237         38.261          1.016
   Te        408.996          4.237         38.263          1.016
   Te        401.513          4.224         37.911          1.007
   Te        408.976          4.237         38.262          1.016
  Edisp (eV):   -5.77548
    FORVDW:  cpu time    0.7359: real time    0.7359
    FORNLD:  cpu time    5.9861: real time    5.9874

 PIEZOELECTRIC TENSOR FIELD DIRECTION 3  (e Angst)
 -----------------------------------------------------------------------------
    -0.25892 -0.00000 -0.00000           ( -0.00000 -0.00000 -0.00000)
    -0.00000 -0.25892 -0.00000           (  0.00000 -0.00000 -0.00000)
     0.00000  0.00000 -0.51351           (  0.00000 -0.00000  0.00000)

 PIEZOELECTRIC TENSOR FIELD DIRECTION 3  (C/m^2)
 -----------------------------------------------------------------------------
    -0.00760 -0.00000 -0.00000
    -0.00000 -0.00760 -0.00000
     0.00000  0.00000 -0.01508


      POSITION         DIRECTION 3           BORN EFFECTIVE CHARGE    (rigid.aug.   ionic)
 -----------------------------------------------------------------------------------------
     -0.00000      1.02482      7.35000    -0.00000 -0.00000-60.38335 (  1.94634 14.00000)
      1.77504      2.04964     14.41000    -0.00000  0.00000-23.37687 (  1.94640 14.00000)
     -0.00000      1.02482     21.47000     0.00000 -0.00000 -4.66015 (  1.94640 14.00000)
      1.77504      2.04964     28.53000     0.00000 -0.00000 -4.77765 (  1.94640 14.00000)
     -0.00000      1.02482     35.59000    -0.00000 -0.00000-23.55763 (  1.94640 14.00000)
      1.77504      2.04964     42.65000    -0.00000  0.00000-60.29788 (  1.94634 14.00000)
      1.77504      2.04964      9.16196     0.00000 -0.00000 -5.44316 (  1.18311  6.00000)
      1.77504      2.04964      5.53804    -0.00000  0.00000 12.18845 (  1.18266  6.00000)
     -0.00000      1.02482     16.22196     0.00000  0.00000 -1.57407 (  1.18311  6.00000)
     -0.00000      1.02482     12.59804     0.00000  0.00000  1.36165 (  1.18307  6.00000)
      1.77504      2.04964     23.28196     0.00000 -0.00000  0.92881 (  1.18311  6.00000)
      1.77504      2.04964     19.65804     0.00000 -0.00000  2.20213 (  1.18311  6.00000)
     -0.00000      1.02482     30.34196     0.00000  0.00000  2.24865 (  1.18311  6.00000)
     -0.00000      1.02482     26.71804    -0.00000  0.00000  0.90972 (  1.18311  6.00000)
      1.77504      2.04964     37.40196     0.00000  0.00000  1.29226 (  1.18307  6.00000)
      1.77504      2.04964     33.77804    -0.00000 -0.00000 -1.63255 (  1.18311  6.00000)
     -0.00000      1.02482     44.46196     0.00000  0.00000 12.13436 (  1.18266  6.00000)
     -0.00000      1.02482     40.83804    -0.00000  0.00000 -5.44109 (  1.18311  6.00000)
 -----------------------------------------------------------------------------------------
    total drift (improves with k-points):   0.00000  0.00000*********




--------------------------------------------------------------------------------------------------------


  LATTYP: Found a hexagonal cell.
 ALAT       =     3.5500762221
 C/A-ratio  =    14.0842046402
  
  Lattice vectors:
  
 A1 = (   3.5500762221,   0.0000000000,   0.0000000000)
 A2 = (  -1.7750381110,   3.0744561937,   0.0000000000)
 A3 = (   0.0000000000,   0.0000000000,  50.0000000000)


Analysis of symmetry for initial positions (statically):
=====================================================================
 Subroutine PRICEL returns:
 Original cell was already a primitive cell.
 

 Routine SETGRP: Setting up the symmetry group for a 
 hexagonal supercell.


 Subroutine GETGRP returns: Found 12 space group operations
 (whereof  4 operations were pure point group operations)
 out of a pool of 24 trial point group operations.


The static configuration has the point symmetry C_2h.
 The point group associated with its full space group is D_3d.


Analysis of symmetry for dynamics (positions and initial velocities):
=====================================================================
 Subroutine PRICEL returns:
 Original cell was already a primitive cell.
 

 Routine SETGRP: Setting up the symmetry group for a 
 hexagonal supercell.


 Subroutine GETGRP returns: Found 12 space group operations
 (whereof  4 operations were pure point group operations)
 out of a pool of 24 trial point group operations.


The dynamic configuration has the point symmetry C_2h.
 The point group associated with its full space group is D_3d.


 Subroutine INISYM returns: Found 12 space group operations
 (whereof  4 operations are pure point group operations),
 and found     1 'primitive' translations



 MACROSCOPIC STATIC DIELECTRIC TENSOR (including local field effects in DFT)
 ------------------------------------------------------
          16.032320     0.000000    -0.000000
           0.000000    16.032320     0.000000
           0.000000     0.000000     4.128512
 ------------------------------------------------------



--------------------------------------------------------------------------------------------------------


  LATTYP: Found a hexagonal cell.
 ALAT       =     3.5500762221
 C/A-ratio  =    14.0842046402
  
  Lattice vectors:
  
 A1 = (   3.5500762221,   0.0000000000,   0.0000000000)
 A2 = (  -1.7750381110,   3.0744561937,   0.0000000000)
 A3 = (   0.0000000000,   0.0000000000,  50.0000000000)


Analysis of symmetry for initial positions (statically):
=====================================================================
 Subroutine PRICEL returns:
 Original cell was already a primitive cell.
 

 Routine SETGRP: Setting up the symmetry group for a 
 hexagonal supercell.


 Subroutine GETGRP returns: Found 12 space group operations
 (whereof  4 operations were pure point group operations)
 out of a pool of 24 trial point group operations.


The static configuration has the point symmetry C_2h.
 The point group associated with its full space group is D_3d.


Analysis of symmetry for dynamics (positions and initial velocities):
=====================================================================
 Subroutine PRICEL returns:
 Original cell was already a primitive cell.
 

 Routine SETGRP: Setting up the symmetry group for a 
 hexagonal supercell.


 Subroutine GETGRP returns: Found 12 space group operations
 (whereof  4 operations were pure point group operations)
 out of a pool of 24 trial point group operations.


The dynamic configuration has the point symmetry C_2h.
 The point group associated with its full space group is D_3d.


 Subroutine INISYM returns: Found 12 space group operations
 (whereof  4 operations are pure point group operations),
 and found     1 'primitive' translations



--------------------------------------------------------------------------------------------------------




 MACROSCOPIC STATIC DIELECTRIC TENSOR (including local field effects in DFT)
 ------------------------------------------------------
          16.032320     0.000000    -0.000000
           0.000000    16.032320     0.000000
           0.000000     0.000000     4.128512
 ------------------------------------------------------


 PIEZOELECTRIC TENSOR  for field in x, y, z        (e  Angst)
          XX          YY          ZZ          XY          YZ          ZX
  --------------------------------------------------------------------------------
  x    -0.01268     0.02018    -0.00248     0.00000     0.00041     0.00000
  y    -0.02133     0.03726     0.01196     0.00000     0.00061     0.00000
  z    -0.25892    -0.25892    -0.51351    -0.00000     0.00000    -0.00000

 PIEZOELECTRIC TENSOR  for field in x, y, z        (C/m^2)
          XX          YY          ZZ          XY          YZ          ZX
  --------------------------------------------------------------------------------
  x     0.00000     0.00000     0.00000     0.00000     0.00000     0.00000
  y     0.00000     0.00000     0.00000     0.00000     0.00000     0.00000
  z     0.00000     0.00000     0.00000     0.00000     0.00000     0.00000
 
 BORN EFFECTIVE CHARGES (in e, cummulative output)
 -------------------------------------------------
 ion    1
    1    -2.54388    -0.00052     0.00004
    2    -0.00000    -2.54476    -0.00008
    3    -0.00000    -0.00000   -60.38335
 ion    2
    1    -2.54555     0.00050     0.00001
    2     0.00000    -2.54457    -0.00000
    3    -0.00000     0.00000   -23.37687
 ion    3
    1    -2.54458    -0.00049     0.00000
    2     0.00000    -2.54560     0.00000
    3     0.00000    -0.00000    -4.66015
 ion    4
    1    -2.54458     0.00049    -0.00000
    2    -0.00000    -2.54358     0.00002
    3     0.00000    -0.00000    -4.77765
 ion    5
    1    -2.54555    -0.00050    -0.00001
    2     0.00000    -2.54652    -0.00000
    3    -0.00000    -0.00000   -23.55763
 ion    6
    1    -2.54388     0.00052    -0.00004
    2     0.00000    -2.54301     0.00019
    3    -0.00000     0.00000   -60.29788
 ion    7
    1     1.28182    -0.00183     0.00022
    2     0.00000     1.28228     0.00219
    3     0.00000    -0.00000    -5.44316
 ion    8
    1     1.27996    -0.00169    -0.00010
    2    -0.00000     1.28037    -0.00138
    3    -0.00000     0.00000    12.18845
 ion    9
    1     1.28221     0.00183     0.00022
    2    -0.00000     1.28173     0.00210
    3     0.00000     0.00000    -1.57407
 ion   10
    1     1.28368     0.00185    -0.00022
    2     0.00000     1.28322    -0.00209
    3     0.00000     0.00000     1.36165
 ion   11
    1     1.28226    -0.00185     0.00023
    2    -0.00000     1.28271     0.00212
    3     0.00000    -0.00000     0.92881
 ion   12
    1     1.28223    -0.00183    -0.00022
    2    -0.00000     1.28272    -0.00211
    3     0.00000    -0.00000     2.20213
 ion   13
    1     1.28223     0.00183     0.00022
    2     0.00000     1.28176     0.00210
    3     0.00000     0.00000     2.24865
 ion   14
    1     1.28226     0.00185    -0.00023
    2     0.00000     1.28180    -0.00211
    3    -0.00000     0.00000     0.90972
 ion   15
    1     1.28368    -0.00185     0.00022
    2     0.00000     1.28416     0.00210
    3     0.00000     0.00000     1.29226
 ion   16
    1     1.28221    -0.00183    -0.00022
    2     0.00000     1.28270    -0.00210
    3    -0.00000    -0.00000    -1.63255
 ion   17
    1     1.27996     0.00169     0.00010
    2     0.00000     1.27955     0.00137
    3     0.00000     0.00000    12.13436
 ion   18
    1     1.28182     0.00183    -0.00022
    2     0.00000     1.28138    -0.00217
    3    -0.00000     0.00000    -5.44109


--------------------------------------------------------------------------------------------------------


 writing wavefunctions
     LOOP+:  cpu time 3362.2369: real time 3368.4942
    4ORBIT:  cpu time    0.0000: real time    0.0000
 BZINTS: Fermi energy:  6.054373;156.000000 electrons
         Band energy:***********;  BLOECHL correction:  0.000000

 total amount of memory used by VASP on root node   171326. kBytes
========================================================================

   base      :      30000. kBytes
   nonl-proj :     110638. kBytes
   fftplans  :       2517. kBytes
   grid      :       9951. kBytes
   one-center:        584. kBytes
   wavefun   :      17636. kBytes
 
  
  
 General timing and accounting informations for this job:
 ========================================================
  
                  Total CPU time used (sec):     3366.507
                            User time (sec):     3313.122
                          System time (sec):       53.385
                         Elapsed time (sec):     3374.242
  
                   Maximum memory used (kb):      574872.
                   Average memory used (kb):           0.
  
                          Minor page faults:     12992654
                          Major page faults:           10
                 Voluntary context switches:         7381
