unknown system                          
           1
     3.550076    0.000000    0.000000
    -1.775038    3.074456    0.000000
     0.000000    0.000000   50.000000
   W    Te
   6  12
Direct configuration=     1
   0.16666667  0.33333333  0.14700000
   0.83333333  0.66666667  0.28820000
   0.16666667  0.33333333  0.42940000
   0.83333333  0.66666667  0.57060000
   0.16666667  0.33333333  0.71180000
   0.83333333  0.66666667  0.85300000
   0.83333333  0.66666667  0.18323924
   0.83333333  0.66666667  0.11076076
   0.16666667  0.33333333  0.32443924
   0.16666667  0.33333333  0.25196076
   0.83333333  0.66666667  0.46563924
   0.83333333  0.66666667  0.39316076
   0.16666667  0.33333333  0.60683924
   0.16666667  0.33333333  0.53436076
   0.83333333  0.66666667  0.74803924
   0.83333333  0.66666667  0.67556076
   0.16666667  0.33333333  0.88923924
   0.16666667  0.33333333  0.81676076
