  18  18   0   0
  0.2438891E+02  0.3184067E-09  0.3184067E-09  0.5000000E-08  0.5000000E-15
  1.000000000000000E-004
  CAR 
 unknown system                          
     15.85126607    -60.98727879  301      4.13338798      1.00000000
    -60.987  0.0000E+00  0.0000E+00
    -60.731  0.0000E+00  0.0000E+00
    -60.475  0.0000E+00  0.0000E+00
    -60.219  0.0000E+00  0.0000E+00
    -59.963  0.0000E+00  0.0000E+00
    -59.707  0.0000E+00  0.0000E+00
    -59.451  0.0000E+00  0.0000E+00
    -59.194  0.0000E+00  0.0000E+00
    -58.938  0.0000E+00  0.0000E+00
    -58.682  0.0000E+00  0.0000E+00
    -58.426  0.0000E+00  0.0000E+00
    -58.170  0.0000E+00  0.0000E+00
    -57.914  0.0000E+00  0.0000E+00
    -57.658  0.0000E+00  0.0000E+00
    -57.401  0.0000E+00  0.1200E+02
    -57.145  0.0000E+00  0.1200E+02
    -56.889  0.0000E+00  0.1200E+02
    -56.633  0.0000E+00  0.1200E+02
    -56.377  0.0000E+00  0.1200E+02
    -56.121  0.0000E+00  0.1200E+02
    -55.865  0.0000E+00  0.1200E+02
    -55.609  0.0000E+00  0.1200E+02
    -55.352  0.0000E+00  0.1200E+02
    -55.096  0.0000E+00  0.1200E+02
    -54.840  0.0000E+00  0.1200E+02
    -54.584  0.0000E+00  0.1200E+02
    -54.328  0.0000E+00  0.1200E+02
    -54.072  0.0000E+00  0.1200E+02
    -53.816  0.0000E+00  0.1200E+02
    -53.560  0.0000E+00  0.1200E+02
    -53.303  0.0000E+00  0.1200E+02
    -53.047  0.0000E+00  0.1200E+02
    -52.791  0.0000E+00  0.1200E+02
    -52.535  0.0000E+00  0.1200E+02
    -52.279  0.0000E+00  0.1200E+02
    -52.023  0.0000E+00  0.1200E+02
    -51.767  0.0000E+00  0.1200E+02
    -51.511  0.0000E+00  0.1200E+02
    -51.254  0.0000E+00  0.1200E+02
    -50.998  0.0000E+00  0.1200E+02
    -50.742  0.0000E+00  0.1200E+02
    -50.486  0.0000E+00  0.1200E+02
    -50.230  0.0000E+00  0.1200E+02
    -49.974  0.0000E+00  0.1200E+02
    -49.718  0.0000E+00  0.1200E+02
    -49.461  0.0000E+00  0.1200E+02
    -49.205  0.0000E+00  0.1200E+02
    -48.949  0.0000E+00  0.1200E+02
    -48.693  0.0000E+00  0.1200E+02
    -48.437  0.0000E+00  0.1200E+02
    -48.181  0.0000E+00  0.1200E+02
    -47.925  0.0000E+00  0.1200E+02
    -47.669  0.0000E+00  0.1200E+02
    -47.412  0.0000E+00  0.1200E+02
    -47.156  0.0000E+00  0.1200E+02
    -46.900  0.0000E+00  0.1200E+02
    -46.644  0.0000E+00  0.1200E+02
    -46.388  0.0000E+00  0.1200E+02
    -46.132  0.0000E+00  0.1200E+02
    -45.876  0.0000E+00  0.1200E+02
    -45.620  0.0000E+00  0.1200E+02
    -45.363  0.0000E+00  0.1200E+02
    -45.107  0.0000E+00  0.1200E+02
    -44.851  0.0000E+00  0.1200E+02
    -44.595  0.0000E+00  0.1200E+02
    -44.339  0.0000E+00  0.1200E+02
    -44.083  0.0000E+00  0.1200E+02
    -43.827  0.0000E+00  0.1200E+02
    -43.571  0.0000E+00  0.1200E+02
    -43.314  0.0000E+00  0.1200E+02
    -43.058  0.0000E+00  0.1200E+02
    -42.802  0.0000E+00  0.1200E+02
    -42.546  0.0000E+00  0.1200E+02
    -42.290  0.0000E+00  0.1200E+02
    -42.034  0.0000E+00  0.1200E+02
    -41.778  0.0000E+00  0.1200E+02
    -41.522  0.0000E+00  0.1200E+02
    -41.265  0.0000E+00  0.1200E+02
    -41.009  0.0000E+00  0.1200E+02
    -40.753  0.0000E+00  0.1200E+02
    -40.497  0.0000E+00  0.1200E+02
    -40.241  0.0000E+00  0.1200E+02
    -39.985  0.0000E+00  0.1200E+02
    -39.729  0.0000E+00  0.1200E+02
    -39.472  0.0000E+00  0.1200E+02
    -39.216  0.0000E+00  0.1200E+02
    -38.960  0.0000E+00  0.1200E+02
    -38.704  0.0000E+00  0.1200E+02
    -38.448  0.0000E+00  0.1200E+02
    -38.192  0.0000E+00  0.1200E+02
    -37.936  0.0000E+00  0.1200E+02
    -37.680  0.0000E+00  0.1200E+02
    -37.423  0.0000E+00  0.1200E+02
    -37.167  0.0000E+00  0.1200E+02
    -36.911  0.0000E+00  0.1200E+02
    -36.655  0.0000E+00  0.1200E+02
    -36.399  0.0000E+00  0.1200E+02
    -36.143  0.0000E+00  0.1200E+02
    -35.887  0.0000E+00  0.1200E+02
    -35.631  0.0000E+00  0.1200E+02
    -35.374  0.0000E+00  0.1200E+02
    -35.118  0.0000E+00  0.1200E+02
    -34.862  0.0000E+00  0.1200E+02
    -34.606  0.0000E+00  0.1200E+02
    -34.350  0.0000E+00  0.1200E+02
    -34.094  0.0000E+00  0.1200E+02
    -33.838  0.0000E+00  0.1200E+02
    -33.582  0.0000E+00  0.1200E+02
    -33.325  0.0000E+00  0.1200E+02
    -33.069  0.0000E+00  0.1200E+02
    -32.813  0.0000E+00  0.1200E+02
    -32.557  0.0000E+00  0.1200E+02
    -32.301  0.0000E+00  0.1200E+02
    -32.045  0.0000E+00  0.1200E+02
    -31.789  0.6037E+01  0.1200E+02
    -31.533  0.8755E+02  0.3802E+02
    -31.276  0.0000E+00  0.4800E+02
    -31.020  0.0000E+00  0.4800E+02
    -30.764  0.0000E+00  0.4800E+02
    -30.508  0.0000E+00  0.4800E+02
    -30.252  0.0000E+00  0.4800E+02
    -29.996  0.0000E+00  0.4800E+02
    -29.740  0.0000E+00  0.4800E+02
    -29.483  0.0000E+00  0.4800E+02
    -29.227  0.0000E+00  0.4800E+02
    -28.971  0.0000E+00  0.4800E+02
    -28.715  0.0000E+00  0.4800E+02
    -28.459  0.0000E+00  0.4800E+02
    -28.203  0.0000E+00  0.4800E+02
    -27.947  0.0000E+00  0.4800E+02
    -27.691  0.0000E+00  0.4800E+02
    -27.434  0.0000E+00  0.4800E+02
    -27.178  0.0000E+00  0.4800E+02
    -26.922  0.0000E+00  0.4800E+02
    -26.666  0.0000E+00  0.4800E+02
    -26.410  0.0000E+00  0.4800E+02
    -26.154  0.0000E+00  0.4800E+02
    -25.898  0.0000E+00  0.4800E+02
    -25.642  0.0000E+00  0.4800E+02
    -25.385  0.0000E+00  0.4800E+02
    -25.129  0.0000E+00  0.4800E+02
    -24.873  0.0000E+00  0.4800E+02
    -24.617  0.0000E+00  0.4800E+02
    -24.361  0.0000E+00  0.4800E+02
    -24.105  0.0000E+00  0.4800E+02
    -23.849  0.0000E+00  0.4800E+02
    -23.593  0.0000E+00  0.4800E+02
    -23.336  0.0000E+00  0.4800E+02
    -23.080  0.0000E+00  0.4800E+02
    -22.824  0.0000E+00  0.4800E+02
    -22.568  0.0000E+00  0.4800E+02
    -22.312  0.0000E+00  0.4800E+02
    -22.056  0.0000E+00  0.4800E+02
    -21.800  0.0000E+00  0.4800E+02
    -21.543  0.0000E+00  0.4800E+02
    -21.287  0.0000E+00  0.4800E+02
    -21.031  0.0000E+00  0.4800E+02
    -20.775  0.0000E+00  0.4800E+02
    -20.519  0.0000E+00  0.4800E+02
    -20.263  0.0000E+00  0.4800E+02
    -20.007  0.0000E+00  0.4800E+02
    -19.751  0.0000E+00  0.4800E+02
    -19.494  0.0000E+00  0.4800E+02
    -19.238  0.0000E+00  0.4800E+02
    -18.982  0.0000E+00  0.4800E+02
    -18.726  0.0000E+00  0.4800E+02
    -18.470  0.0000E+00  0.4800E+02
    -18.214  0.0000E+00  0.4800E+02
    -17.958  0.0000E+00  0.4800E+02
    -17.702  0.0000E+00  0.4800E+02
    -17.445  0.0000E+00  0.4800E+02
    -17.189  0.0000E+00  0.4800E+02
    -16.933  0.0000E+00  0.4800E+02
    -16.677  0.0000E+00  0.4800E+02
    -16.421  0.0000E+00  0.4800E+02
    -16.165  0.0000E+00  0.4800E+02
    -15.909  0.0000E+00  0.4800E+02
    -15.653  0.0000E+00  0.4800E+02
    -15.396  0.0000E+00  0.4800E+02
    -15.140  0.0000E+00  0.4800E+02
    -14.884  0.0000E+00  0.4800E+02
    -14.628  0.0000E+00  0.4800E+02
    -14.372  0.0000E+00  0.4800E+02
    -14.116  0.0000E+00  0.4800E+02
    -13.860  0.0000E+00  0.4800E+02
    -13.604  0.0000E+00  0.4800E+02
    -13.347  0.0000E+00  0.4800E+02
    -13.091  0.0000E+00  0.4800E+02
    -12.835  0.0000E+00  0.4800E+02
    -12.579  0.0000E+00  0.4800E+02
    -12.323  0.0000E+00  0.4800E+02
    -12.067  0.0000E+00  0.4800E+02
    -11.811  0.0000E+00  0.4800E+02
    -11.554  0.0000E+00  0.4800E+02
    -11.298  0.0000E+00  0.4800E+02
    -11.042  0.0000E+00  0.4800E+02
    -10.786  0.7231E+00  0.4802E+02
    -10.530  0.3065E+01  0.4853E+02
    -10.274  0.3325E+01  0.4935E+02
    -10.018  0.3646E+01  0.5024E+02
     -9.762  0.4084E+01  0.5123E+02
     -9.505  0.6884E+01  0.5251E+02
     -9.249  0.1230E+02  0.5485E+02
     -8.993  0.1932E+02  0.5890E+02
     -8.737  0.2895E+02  0.6544E+02
     -8.481  0.0000E+00  0.7200E+02
     -8.225  0.0000E+00  0.7200E+02
     -7.969  0.0000E+00  0.7200E+02
     -7.713  0.0000E+00  0.7200E+02
     -7.456  0.0000E+00  0.7200E+02
     -7.200  0.0000E+00  0.7200E+02
     -6.944  0.0000E+00  0.7200E+02
     -6.688  0.0000E+00  0.7200E+02
     -6.432  0.0000E+00  0.7200E+02
     -6.176  0.0000E+00  0.7200E+02
     -5.920  0.0000E+00  0.7200E+02
     -5.664  0.0000E+00  0.7200E+02
     -5.407  0.0000E+00  0.7200E+02
     -5.151  0.0000E+00  0.7200E+02
     -4.895  0.0000E+00  0.7200E+02
     -4.639  0.0000E+00  0.7200E+02
     -4.383  0.0000E+00  0.7200E+02
     -4.127  0.0000E+00  0.7200E+02
     -3.871  0.0000E+00  0.7200E+02
     -3.614  0.0000E+00  0.7200E+02
     -3.358  0.0000E+00  0.7200E+02
     -3.102  0.0000E+00  0.7200E+02
     -2.846  0.0000E+00  0.7200E+02
     -2.590  0.4540E+00  0.7205E+02
     -2.334  0.5318E+01  0.7274E+02
     -2.078  0.1161E+02  0.7494E+02
     -1.822  0.2035E+02  0.7988E+02
     -1.565  0.2044E+02  0.8433E+02
     -1.309  0.1063E+02  0.8841E+02
     -1.053  0.5096E+01  0.9019E+02
     -0.797  0.1058E+02  0.9202E+02
     -0.541  0.2112E+02  0.9566E+02
     -0.285  0.1705E+02  0.1012E+03
     -0.029  0.1074E+02  0.1049E+03
      0.227  0.3765E+02  0.1088E+03
      0.484  0.1367E+02  0.1149E+03
      0.740  0.9178E+01  0.1183E+03
      0.996  0.9502E+01  0.1209E+03
      1.252  0.9447E+01  0.1233E+03
      1.508  0.2404E+02  0.1291E+03
      1.764  0.1485E+02  0.1345E+03
      2.020  0.1588E+02  0.1382E+03
      2.276  0.8935E+01  0.1420E+03
      2.533  0.1200E+02  0.1440E+03
      2.789  0.1804E+02  0.1496E+03
      3.045  0.1098E+02  0.1532E+03
      3.301  0.4391E+01  0.1550E+03
      3.557  0.1394E+01  0.1556E+03
      3.813  0.9303E+00  0.1559E+03
      4.069  0.0000E+00  0.1560E+03
      4.325  0.0000E+00  0.1560E+03
      4.582  0.0000E+00  0.1560E+03
      4.838  0.0000E+00  0.1560E+03
      5.094  0.4041E+01  0.1562E+03
      5.350  0.1285E+02  0.1585E+03
      5.606  0.3266E+02  0.1633E+03
      5.862  0.2257E+02  0.1699E+03
      6.118  0.2987E+02  0.1772E+03
      6.375  0.1526E+02  0.1833E+03
      6.631  0.1617E+02  0.1868E+03
      6.887  0.1298E+02  0.1904E+03
      7.143  0.1008E+02  0.1931E+03
      7.399  0.1196E+02  0.1956E+03
      7.655  0.1166E+02  0.1991E+03
      7.911  0.7556E+01  0.2017E+03
      8.167  0.6566E+01  0.2034E+03
      8.424  0.0000E+00  0.2040E+03
      8.680  0.0000E+00  0.2040E+03
      8.936  0.3024E+00  0.2040E+03
      9.192  0.7122E+00  0.2042E+03
      9.448  0.1492E+01  0.2044E+03
      9.704  0.3555E+01  0.2050E+03
      9.960  0.5532E+01  0.2062E+03
     10.216  0.6772E+01  0.2079E+03
     10.473  0.7220E+01  0.2097E+03
     10.729  0.7740E+01  0.2116E+03
     10.985  0.6807E+01  0.2136E+03
     11.241  0.8792E+01  0.2156E+03
     11.497  0.1036E+02  0.2181E+03
     11.753  0.1039E+02  0.2211E+03
     12.009  0.5650E+01  0.2232E+03
     12.265  0.1268E+01  0.2239E+03
     12.522  0.0000E+00  0.2240E+03
     12.778  0.0000E+00  0.2240E+03
     13.034  0.0000E+00  0.2240E+03
     13.290  0.0000E+00  0.2240E+03
     13.546  0.0000E+00  0.2240E+03
     13.802  0.0000E+00  0.2240E+03
     14.058  0.0000E+00  0.2240E+03
     14.314  0.0000E+00  0.2240E+03
     14.571  0.0000E+00  0.2240E+03
     14.827  0.0000E+00  0.2240E+03
     15.083  0.0000E+00  0.2240E+03
     15.339  0.0000E+00  0.2240E+03
     15.595  0.0000E+00  0.2240E+03
     15.851  0.0000E+00  0.2240E+03
