       N       E                     dE             d eps       ncg     rms          rms(c)
DAV:   1     0.101981791150E+04    0.10198E+04   -0.68863E+04  9408   0.950E+02
DAV:   2    -0.663462749218E+02   -0.10862E+04   -0.10509E+04 12096   0.386E+02
DAV:   3    -0.153327574936E+03   -0.86981E+02   -0.85891E+02 11984   0.102E+02
DAV:   4    -0.157035512860E+03   -0.37079E+01   -0.36943E+01 15848   0.227E+01
DAV:   5    -0.157069887474E+03   -0.34375E-01   -0.34352E-01 11788   0.194E+00    0.258E+01
DAV:   6    -0.140165589561E+03    0.16904E+02   -0.93945E+01 13692   0.393E+01    0.130E+01
DAV:   7    -0.135724609784E+03    0.44410E+01   -0.28094E+01 13328   0.203E+01    0.727E+00
DAV:   8    -0.135399539343E+03    0.32507E+00   -0.23879E+00 12292   0.622E+00    0.130E+00
DAV:   9    -0.135379216384E+03    0.20323E-01   -0.21643E-01 11648   0.199E+00    0.689E-01
DAV:  10    -0.135376803042E+03    0.24133E-02   -0.40578E-02 13300   0.779E-01    0.331E-01
DAV:  11    -0.135375878096E+03    0.92495E-03   -0.66021E-03 11592   0.293E-01    0.114E-01
DAV:  12    -0.135375685029E+03    0.19307E-03   -0.16517E-03 12712   0.178E-01    0.662E-02
DAV:  13    -0.135375625338E+03    0.59691E-04   -0.39063E-04 11760   0.714E-02    0.263E-02
DAV:  14    -0.135375642214E+03   -0.16876E-04   -0.46072E-05 11200   0.247E-02    0.122E-02
DAV:  15    -0.135375671659E+03   -0.29445E-04   -0.16196E-05 10696   0.160E-02    0.535E-03
DAV:  16    -0.135375693197E+03   -0.21537E-04   -0.53341E-06 11480   0.781E-03    0.374E-03
DAV:  17    -0.135375739393E+03   -0.46196E-04   -0.69067E-06 10080   0.571E-03    0.236E-03
DAV:  18    -0.135375759640E+03   -0.20247E-04   -0.16321E-06 10472   0.343E-03    0.160E-03
DAV:  19    -0.135375781549E+03   -0.21909E-04   -0.20930E-06 10192   0.286E-03    0.957E-04
DAV:  20    -0.135375786297E+03   -0.47478E-05   -0.31558E-07 10696   0.161E-03    0.576E-04
DAV:  21    -0.135375791464E+03   -0.51672E-05   -0.59915E-08 10472   0.655E-04    0.392E-04
DAV:  22    -0.135375797462E+03   -0.59984E-05   -0.11471E-07  9352   0.697E-04    0.269E-04
DAV:  23    -0.135375800012E+03   -0.25501E-05   -0.26813E-08  9016   0.398E-04    0.176E-04
DAV:  24    -0.135375802914E+03   -0.29015E-05   -0.41030E-08  8428   0.364E-04    0.904E-05
DAV:  25    -0.135375803894E+03   -0.98013E-06   -0.11090E-08  7952   0.219E-04    0.678E-05
DAV:  26    -0.135375804419E+03   -0.52555E-06   -0.60132E-09  7364   0.168E-04    0.284E-05
DAV:  27    -0.135375804597E+03   -0.17790E-06   -0.22153E-09  7616   0.124E-04    0.165E-05
DAV:  28    -0.135375804623E+03   -0.25635E-07   -0.30200E-10  7000   0.759E-05    0.967E-06
DAV:  29    -0.135375804633E+03   -0.95752E-08   -0.18246E-10  6720   0.539E-05
   1 F= -.14082108E+03 E0= -.14082108E+03  d E =0.000000E+00
 Linear response reoptimize wavefunctions
DAV:   1    -0.135375804633E+03    0.54453E+01   -0.64096E-11  7056   0.451E-05
DAV:   2    -0.135375804633E+03   -0.10186E-09   -0.22057E-11  7000   0.213E-05
DAV:   3    -0.135375804633E+03    0.14552E-09   -0.14066E-11  7196   0.149E-05
 Linear response G [H, r] |phi>, progress :
  Direction:   1
       N       E                     dE             d eps       ncg     rms
RMM:   1    -0.598882986762E+03   -0.59888E+03   -0.22134E+02 11452   0.473E+02
RMM:   2    -0.622374429816E+03   -0.23491E+02   -0.57184E+02 13319   0.616E+01
RMM:   3    -0.637052325379E+03   -0.14678E+02   -0.54680E+01 13999   0.179E+01
RMM:   4    -0.638196964675E+03   -0.11446E+01   -0.28938E+00 15859   0.474E+00
RMM:   5    -0.638257600122E+03   -0.60635E-01   -0.33958E-01 16540   0.154E+00
RMM:   6    -0.638264695323E+03   -0.70952E-02   -0.77681E-02 17217   0.552E-01
RMM:   7    -0.638264767144E+03   -0.71821E-04   -0.25101E-02 17698   0.206E-01
RMM:   8    -0.638264480408E+03    0.28674E-03   -0.14858E-02 18183   0.833E-02
RMM:   9    -0.638264639975E+03   -0.15957E-03   -0.15060E-02 19203   0.363E-02
RMM:  10    -0.638263636497E+03    0.10035E-02   -0.48096E-03 20382   0.188E-02
RMM:  11    -0.638264840959E+03   -0.12045E-02   -0.16818E-02 20991   0.133E-02
RMM:  12    -0.638263615221E+03    0.12257E-02   -0.45546E-03 21450   0.119E-02
RMM:  13    -0.638264864148E+03   -0.12489E-02   -0.17043E-02 21344   0.115E-02
RMM:  14    -0.638263711396E+03    0.11528E-02   -0.55153E-03 21212   0.115E-02
 Linear response G [H, r] |phi>, progress :
  Direction:   2
       N       E                     dE             d eps       ncg     rms
RMM:   1    -0.570701043228E+03   -0.57070E+03   -0.87588E+01 11279   0.479E+02
RMM:   2    -0.651336170191E+03   -0.80635E+02   -0.60404E+02 13122   0.638E+01
RMM:   3    -0.666814150655E+03   -0.15478E+02   -0.59813E+01 14059   0.183E+01
RMM:   4    -0.668022441577E+03   -0.12083E+01   -0.30990E+00 15690   0.480E+00
RMM:   5    -0.668109277324E+03   -0.86836E-01   -0.67475E-01 16602   0.154E+00
RMM:   6    -0.668104233966E+03    0.50434E-02   -0.29232E-01 17313   0.545E-01
RMM:   7    -0.668101386851E+03    0.28471E-02   -0.20731E-01 17612   0.202E-01
RMM:   8    -0.668100852441E+03    0.53441E-03   -0.19468E-01 18138   0.811E-02
RMM:   9    -0.668101609297E+03   -0.75686E-03   -0.20086E-01 19122   0.361E-02
RMM:  10    -0.668098985108E+03    0.26242E-02   -0.17442E-01 20507   0.203E-02
RMM:  11    -0.668101987168E+03   -0.30021E-02   -0.20441E-01 21037   0.154E-02
RMM:  12    -0.668097223723E+03    0.47634E-02   -0.15677E-01 21500   0.141E-02
RMM:  13    -0.668102502895E+03   -0.52792E-02   -0.20956E-01 21357   0.139E-02
RMM:  14    -0.668096545240E+03    0.59577E-02   -0.14998E-01 21230   0.138E-02
 Linear response G [H, r] |phi>, progress :
  Direction:   3
       N       E                     dE             d eps       ncg     rms
RMM:   1    -0.579352125570E+03   -0.57935E+03    0.36520E+02 12410   0.474E+02
RMM:   2    -0.637758300372E+03   -0.58406E+02   -0.55586E+02 13306   0.601E+01
RMM:   3    -0.651307816291E+03   -0.13550E+02   -0.51283E+01 13806   0.179E+01
RMM:   4    -0.652412507933E+03   -0.11047E+01   -0.33738E+00 16028   0.480E+00
RMM:   5    -0.652479752079E+03   -0.67244E-01   -0.43924E-01 17022   0.153E+00
RMM:   6    -0.652485479130E+03   -0.57271E-02   -0.61119E-02 16782   0.521E-01
RMM:   7    -0.652486229694E+03   -0.75056E-03   -0.97899E-03 17219   0.193E-01
RMM:   8    -0.652486329076E+03   -0.99381E-04   -0.17461E-03 17494   0.756E-02
RMM:   9    -0.652486350545E+03   -0.21469E-04   -0.54518E-04 18885   0.323E-02
RMM:  10    -0.652486341851E+03    0.86936E-05   -0.22285E-04 19894   0.173E-02
RMM:  11    -0.652486331316E+03    0.10535E-04   -0.80320E-05 20659   0.128E-02
RMM:  12    -0.652486330543E+03    0.77324E-06   -0.67275E-05 20935   0.116E-02
RMM:  13    -0.652486331691E+03   -0.11473E-05   -0.77920E-05 20762   0.114E-02
RMM:  14    -0.652486330408E+03    0.12822E-05   -0.65037E-05 20720   0.113E-02
 Linear response to external field (no local field effect), progress :
  Direction:   1
       N       E                     dE             d eps       ncg     rms          rms(c)
RMM:   1    -0.109306641379E+02   -0.10931E+02   -0.72573E+01 19460   0.829E+00
RMM:   2    -0.136551001159E+02   -0.27244E+01    0.16412E-01 11545   0.219E+00
RMM:   3    -0.137762399776E+02   -0.12114E+00   -0.15123E-01 14671   0.586E-01
RMM:   4    -0.137806503302E+02   -0.44104E-02   -0.85494E-03 14642   0.169E-01
RMM:   5    -0.137809477942E+02   -0.29746E-03   -0.11795E-03 16045   0.607E-02
RMM:   6    -0.137809886381E+02   -0.40844E-04   -0.13455E-04 16220   0.225E-02
RMM:   7    -0.137809956797E+02   -0.70415E-05   -0.26770E-05 16366   0.863E-03
RMM:   8    -0.137809965068E+02   -0.82710E-06   -0.50528E-06 16639   0.347E-03
RMM:   9    -0.137809966201E+02   -0.11332E-06   -0.14727E-06 16225   0.153E-03
RMM:  10    -0.137809966409E+02   -0.20807E-07   -0.87645E-07 15914   0.800E-04
RMM:  11    -0.137809966433E+02   -0.24003E-08   -0.75891E-07 15596   0.552E-04
RMM:  12    -0.137809966444E+02   -0.11309E-08   -0.74638E-07 14579   0.468E-04
RMM:  13    -0.137809966447E+02   -0.27284E-09   -0.74455E-07 13834   0.442E-04
RMM:  14    -0.137809966448E+02   -0.15176E-09   -0.74515E-07 12812   0.433E-04
 Linear response to external field (no local field effect), progress :
  Direction:   2
       N       E                     dE             d eps       ncg     rms          rms(c)
RMM:   1    -0.111567704926E+02   -0.11157E+02   -0.72741E+01 19392   0.839E+00
RMM:   2    -0.134398883424E+02   -0.22831E+01    0.42501E-01 11391   0.220E+00
RMM:   3    -0.135773430092E+02   -0.13745E+00   -0.13619E-01 14556   0.597E-01
RMM:   4    -0.135826297524E+02   -0.52867E-02   -0.10307E-02 14686   0.174E-01
RMM:   5    -0.135829336472E+02   -0.30389E-03   -0.99070E-04 15613   0.628E-02
RMM:   6    -0.135829836600E+02   -0.50013E-04   -0.17440E-04 16212   0.232E-02
RMM:   7    -0.135829891667E+02   -0.55067E-05   -0.23215E-05 16147   0.876E-03
RMM:   8    -0.135829900345E+02   -0.86775E-06   -0.52116E-06 16432   0.352E-03
RMM:   9    -0.135829901323E+02   -0.97879E-07   -0.15699E-06 16000   0.154E-03
RMM:  10    -0.135829901506E+02   -0.18235E-07   -0.10189E-06 15795   0.821E-04
RMM:  11    -0.135829901529E+02   -0.23678E-08   -0.91176E-07 15406   0.573E-04
RMM:  12    -0.135829901533E+02   -0.39241E-09   -0.89254E-07 14455   0.491E-04
RMM:  13    -0.135829901535E+02   -0.14768E-09   -0.89021E-07 13703   0.466E-04
RMM:  14    -0.135829901535E+02   -0.27590E-10   -0.88957E-07 12636   0.459E-04
 Linear response to external field (no local field effect), progress :
  Direction:   3
       N       E                     dE             d eps       ncg     rms          rms(c)
RMM:   1    -0.678581348207E+01   -0.67858E+01   -0.35946E+01 19354   0.766E+00
RMM:   2    -0.768118492494E+01   -0.89537E+00    0.54546E-02 10714   0.187E+00
RMM:   3    -0.773344045902E+01   -0.52256E-01   -0.63977E-02 14292   0.495E-01
RMM:   4    -0.773574951933E+01   -0.23091E-02   -0.47357E-03 15070   0.142E-01
RMM:   5    -0.773586654796E+01   -0.11703E-03   -0.49847E-04 15245   0.520E-02
RMM:   6    -0.773588449589E+01   -0.17948E-04   -0.85529E-05 16218   0.193E-02
RMM:   7    -0.773588649625E+01   -0.20004E-05   -0.15272E-05 15664   0.760E-03
RMM:   8    -0.773588679229E+01   -0.29604E-06   -0.45043E-06 15589   0.314E-03
RMM:   9    -0.773588682141E+01   -0.29127E-07   -0.24352E-06 15047   0.149E-03
RMM:  10    -0.773588682710E+01   -0.56905E-08   -0.21033E-06 15348   0.868E-04
RMM:  11    -0.773588682941E+01   -0.23076E-08   -0.20574E-06 14904   0.650E-04
RMM:  12    -0.773588682874E+01    0.66696E-09   -0.20400E-06 14144   0.575E-04
RMM:  13    -0.773588682898E+01   -0.23227E-09   -0.20406E-06 13118   0.551E-04
RMM:  14    -0.773588682910E+01   -0.12485E-09   -0.20409E-06 12449   0.543E-04
 Linear response to external field, progress :
  Direction:   1
       N       E                     dE             d eps       ncg     rms          rms(c)
RMM:   1    -0.110788052714E+02   -0.11079E+02   -0.73008E+01 47627   0.829E+00
RMM:   2    -0.135490917985E+02   -0.24703E+01    0.28064E-01 28498   0.216E+00    0.792E+00
RMM:   3    -0.131058586283E+02    0.44323E+00   -0.51151E-01 33101   0.253E+00    0.416E+00
RMM:   4    -0.134164724679E+02   -0.31061E+00   -0.32045E-01 33235   0.237E+00    0.725E-01
RMM:   5    -0.135333249294E+02   -0.11685E+00   -0.37087E-02 35814   0.670E-01    0.121E-01
RMM:   6    -0.135469977344E+02   -0.13673E-01    0.14955E-03 35629   0.154E-01    0.541E-02
RMM:   7    -0.135484403963E+02   -0.14427E-02    0.30764E-03 36799   0.531E-02    0.156E-02
RMM:   8    -0.135497964350E+02   -0.13560E-02   -0.60794E-03 39309   0.168E-02    0.919E-03
RMM:   9    -0.135492991256E+02    0.49731E-03    0.31905E-03 37995   0.741E-03    0.384E-03
RMM:  10    -0.135499204667E+02   -0.62134E-03   -0.58694E-04 37703   0.333E-03    0.813E-04
RMM:  11    -0.135499063926E+02    0.14074E-04   -0.48040E-05 41075   0.139E-03    0.471E-04
RMM:  12    -0.135499240488E+02   -0.17656E-04   -0.59891E-05 40365   0.737E-04    0.206E-04
RMM:  13    -0.135499060656E+02    0.17983E-04    0.69831E-05 39531   0.543E-04    0.100E-04
RMM:  14    -0.135499104758E+02   -0.44102E-05    0.35429E-05 40998   0.460E-04    0.230E-05
RMM:  15    -0.135499122302E+02   -0.17544E-05    0.26539E-05 37167   0.425E-04    0.233E-05
RMM:  16    -0.135499120170E+02    0.21322E-06    0.29170E-05 31896   0.420E-04    0.737E-06
 Linear response to external field, progress :
  Direction:   2
       N       E                     dE             d eps       ncg     rms          rms(c)
RMM:   1    -0.110976162078E+02   -0.11098E+02   -0.73196E+01 47805   0.829E+00
RMM:   2    -0.135561877310E+02   -0.24586E+01    0.20837E-01 28466   0.215E+00    0.792E+00
RMM:   3    -0.131046131584E+02    0.45157E+00   -0.49218E-01 33094   0.253E+00    0.416E+00
RMM:   4    -0.134175687408E+02   -0.31296E+00   -0.33122E-01 33351   0.237E+00    0.726E-01
RMM:   5    -0.135333670567E+02   -0.11580E+00   -0.36479E-02 35679   0.674E-01    0.130E-01
RMM:   6    -0.135473442770E+02   -0.13977E-01   -0.18338E-02 36019   0.157E-01    0.666E-02
RMM:   7    -0.135454552170E+02    0.18891E-02    0.30884E-02 35873   0.621E-02    0.313E-02
RMM:   8    -0.135489722261E+02   -0.35170E-02    0.95388E-04 37735   0.240E-02    0.962E-03
RMM:   9    -0.135496243503E+02   -0.65212E-03   -0.67689E-04 37627   0.915E-03    0.435E-03
RMM:  10    -0.135498523625E+02   -0.22801E-03    0.43600E-05 39545   0.350E-03    0.125E-03
RMM:  11    -0.135498800724E+02   -0.27710E-04    0.10848E-04 42222   0.146E-03    0.771E-04
RMM:  12    -0.135499490520E+02   -0.68980E-04   -0.29955E-04 39045   0.847E-04    0.234E-04
RMM:  13    -0.135499230051E+02    0.26047E-04   -0.10116E-05 41857   0.547E-04    0.898E-05
RMM:  14    -0.135499196728E+02    0.33323E-05    0.27343E-05 41638   0.447E-04    0.476E-05
RMM:  15    -0.135499211752E+02   -0.15025E-05    0.21927E-05 37502   0.428E-04    0.203E-05
RMM:  16    -0.135499214649E+02   -0.28962E-06    0.23505E-05 32864   0.416E-04    0.138E-05
RMM:  17    -0.135499213162E+02    0.14863E-06    0.25681E-05 31443   0.414E-04    0.545E-06
 Linear response to external field, progress :
  Direction:   3
       N       E                     dE             d eps       ncg     rms          rms(c)
RMM:   1    -0.678581348207E+01   -0.67858E+01   -0.35946E+01 19354   0.766E+00
RMM:   2    -0.768118492494E+01   -0.89537E+00    0.54546E-02 10714   0.187E+00    0.658E+00
RMM:   3    -0.181072965498E+00    0.75001E+01    0.22442E+01 12923   0.412E+00    0.241E+00
RMM:   4    -0.163261573925E+01   -0.14515E+01    0.10481E+01 13752   0.130E+00    0.111E+00
RMM:   5     0.843245476540E+00    0.24759E+01    0.31557E+01 13287   0.916E-01    0.486E-01
RMM:   6    -0.739601932188E+00   -0.15828E+01    0.14683E+01 14071   0.417E-01    0.356E-01
RMM:   7    -0.259791964130E+00    0.47981E+00    0.18472E+01 14115   0.271E-01    0.252E-01
RMM:   8    -0.613272093129E+00   -0.35348E+00    0.14544E+01 13734   0.219E-01    0.137E-01
RMM:   9    -0.812896643360E+00   -0.19962E+00    0.12393E+01 14164   0.147E-01    0.712E-02
RMM:  10    -0.176453299349E+01   -0.95164E+00    0.28199E+00 14585   0.765E-02    0.308E-02
RMM:  11    -0.196880264454E+01   -0.20427E+00    0.77838E-01 14689   0.258E-02    0.228E-02
RMM:  12    -0.202885367122E+01   -0.60051E-01    0.18025E-01 12890   0.300E-02    0.134E-02
RMM:  13    -0.202522101302E+01    0.36327E-02    0.22197E-01 13774   0.164E-02    0.953E-03
RMM:  14    -0.204144894227E+01   -0.16228E-01    0.66835E-02 13665   0.127E-02    0.806E-03
RMM:  15    -0.204995275413E+01   -0.85038E-02   -0.13801E-02 13233   0.838E-03    0.343E-03
RMM:  16    -0.204586731334E+01    0.40854E-02    0.27528E-02 13820   0.429E-03    0.272E-03
RMM:  17    -0.204441717009E+01    0.14501E-02    0.42385E-02 13105   0.437E-03    0.123E-03
RMM:  18    -0.204695028481E+01   -0.25331E-02    0.17023E-02 13334   0.235E-03    0.758E-04
RMM:  19    -0.204817185046E+01   -0.12216E-02    0.45976E-03 13947   0.205E-03    0.351E-04
RMM:  20    -0.204857609551E+01   -0.40425E-03    0.34483E-04 13992   0.129E-03    0.127E-04
RMM:  21    -0.204840604551E+01    0.17005E-03    0.20314E-03 14424   0.416E-04    0.461E-05
RMM:  22    -0.204851160471E+01   -0.10556E-03    0.95367E-04 14426   0.326E-04    0.295E-05
RMM:  23    -0.204860537253E+01   -0.93768E-04    0.38661E-07 14030   0.288E-04    0.915E-06
