 vasp.5.4.1 24Jun15 (build Apr 13 2016 13:07:19) complex                        
  
 executed on           IFC91_ompi date 2019.09.13  22:50:58
 running on   28 total cores
 distrk:  each k-point on   28 cores,    1 groups
 distr:  one band on NCORES_PER_BAND=   1 cores,   28 groups


--------------------------------------------------------------------------------------------------------


 INCAR:
 POTCAR:    PAW_PBE Mo_sv_GW 05Dec2013            
 POTCAR:    PAW_PBE S_GW 19Mar2012                

 ----------------------------------------------------------------------------- 
|                                                                             |
|           W    W    AA    RRRRR   N    N  II  N    N   GGGG   !!!           |
|           W    W   A  A   R    R  NN   N  II  NN   N  G    G  !!!           |
|           W    W  A    A  R    R  N N  N  II  N N  N  G       !!!           |
|           W WW W  AAAAAA  RRRRR   N  N N  II  N  N N  G  GGG   !            |
|           WW  WW  A    A  R   R   N   NN  II  N   NN  G    G                |
|           W    W  A    A  R    R  N    N  II  N    N   GGGG   !!!           |
|                                                                             |
|      For optimal performance we recommend to set                            |
|        NCORE= 4 - approx SQRT( number of cores)                             |
|      NCORE specifies how many cores store one orbital (NPAR=cpu/NCORE).     |
|      This setting can  greatly improve the performance of VASP for DFT.     |
|      The default, NPAR=number of cores might be grossly inefficient         |
|      on modern multi-core architectures or massively parallel machines.     |
|      Do your own testing !!!!                                               |
|      Unfortunately you need to use the default for GW and RPA calculations. |
|      (for HF NCORE is supported but not extensively tested yet)             |
|                                                                             |
 ----------------------------------------------------------------------------- 

 POTCAR:    PAW_PBE Mo_sv_GW 05Dec2013            
   VRHFIN =Mo: 4s4p5s4d                                                         
   LEXCH  = PE                                                                  
   EATOM  =  1861.5185 eV,  136.8178 Ry                                         
                                                                                
   TITEL  = PAW_PBE Mo_sv_GW 05Dec2013                                          
   LULTRA =        F    use ultrasoft PP ?                                      
   IUNSCR =        1    unscreen: 0-lin 1-nonlin 2-no                           
   RPACOR =    2.000    partial core radius                                     
   POMASS =   95.940; ZVAL   =   14.000    mass and valenz                      
   RCORE  =    2.100    outmost cutoff radius                                   
   RWIGS  =    2.100; RWIGS  =    1.111    wigner-seitz radius (au A)           
   ENMAX  =  344.914; ENMIN  =  258.686 eV                                      
   RCLOC  =    1.508    cutoff for local pot                                    
   LCOR   =        T    correct aug charges                                     
   LPAW   =        T    paw PP                                                  
   EAUG   =  964.741                                                            
   DEXC   =    0.000                                                            
   RMAX   =    2.149    core radius for proj-oper                               
   RAUG   =    1.300    factor for augmentation sphere                          
   RDEP   =    2.179    radius for radial grids                                 
   RDEPT  =    1.677    core radius for aug-charge                              
                                                                                
   Atomic configuration                                                         
   12 entries                                                                   
     n  l   j            E        occ.                                          
     1  0  0.50    -19816.9363   2.0000                                         
     2  0  0.50     -2796.7578   2.0000                                         
     2  1  1.50     -2499.7842   6.0000                                         
     3  0  0.50      -474.2095   2.0000                                         
     3  1  1.50      -376.9135   6.0000                                         
     3  2  2.50      -218.6898  10.0000                                         
     4  0  0.50       -62.1983   2.0000                                         
     4  0  0.50       -66.6685   0.0000                                         
     4  1  1.50       -36.4414   6.0000                                         
     4  1  1.50       -40.8175   0.0000                                         
     4  2  2.50        -2.3086   6.0000                                         
     4  3  2.50        -1.3606   0.0000                                         
   Description                                                                  
     l       E           TYP  RCUT    TYP  RCUT                                 
     0    -62.1983072     23  1.950                                             
     0     27.2116520     23  1.950                                             
     0    149.6640860     23  1.950                                             
     1    -36.4413666     23  1.800                                             
     1    -40.8174780     23  1.800                                             
     1     54.4233040     23  1.800                                             
     2     -2.3085597     23  2.000                                             
     2     -6.8029130     23  2.000                                             
     2    136.0582600     23  2.000                                             
     3     13.6058260     23  2.100                                             
     3     81.6349560     23  2.100                                             
  local pseudopotential read in
  partial core-charges read in
  partial kinetic energy density read in
  kinetic energy density of atom read in
  atomic valenz-charges read in
  non local Contribution for L=           0  read in
    real space projection operators read in
  non local Contribution for L=           0  read in
    real space projection operators read in
  non local Contribution for L=           0  read in
    real space projection operators read in
  non local Contribution for L=           1  read in
    real space projection operators read in
  non local Contribution for L=           1  read in
    real space projection operators read in
  non local Contribution for L=           1  read in
    real space projection operators read in
  non local Contribution for L=           2  read in
    real space projection operators read in
  non local Contribution for L=           2  read in
    real space projection operators read in
  non local Contribution for L=           2  read in
    real space projection operators read in
  non local Contribution for L=           3  read in
    real space projection operators read in
  non local Contribution for L=           3  read in
    real space projection operators read in
    PAW grid and wavefunctions read in
 
   number of l-projection  operators is LMAX  =          11
   number of lm-projection operators is LMMAX =          41
 
 POTCAR:    PAW_PBE S_GW 19Mar2012                
   VRHFIN =S : s2p4                                                             
   LEXCH  = PE                                                                  
   EATOM  =   276.8230 eV,   20.3459 Ry                                         
                                                                                
   TITEL  = PAW_PBE S_GW 19Mar2012                                              
   LULTRA =        F    use ultrasoft PP ?                                      
   IUNSCR =        1    unscreen: 0-lin 1-nonlin 2-no                           
   RPACOR =    1.400    partial core radius                                     
   POMASS =   32.066; ZVAL   =    6.000    mass and valenz                      
   RCORE  =    1.900    outmost cutoff radius                                   
   RWIGS  =    1.900; RWIGS  =    1.005    wigner-seitz radius (au A)           
   ENMAX  =  258.689; ENMIN  =  194.016 eV                                      
   ICORE  =        3    local potential                                         
   LCOR   =        T    correct aug charges                                     
   LPAW   =        T    paw PP                                                  
   EAUG   =  488.319                                                            
   DEXC   =    0.000                                                            
   RMAX   =    1.942    core radius for proj-oper                               
   RAUG   =    1.300    factor for augmentation sphere                          
   RDEP   =    1.954    radius for radial grids                                 
   RDEPT  =    1.900    core radius for aug-charge                              
                                                                                
   Atomic configuration                                                         
    7 entries                                                                   
     n  l   j            E        occ.                                          
     1  0  0.50     -2405.8406   2.0000                                         
     2  0  0.50      -211.7007   2.0000                                         
     2  1  1.50      -156.4958   6.0000                                         
     3  0  0.50       -17.2562   2.0000                                         
     3  1  0.50        -7.0085   4.0000                                         
     3  2  1.50        -8.1635   0.0000                                         
     4  3  2.50        -1.3606   0.0000                                         
   Description                                                                  
     l       E           TYP  RCUT    TYP  RCUT                                 
     0    -17.2561639     23  1.700                                             
     0     88.4378690     23  1.900                                             
     1     -7.0085399     23  1.900                                             
     1     88.4378690     23  1.900                                             
     2    -10.8846608     23  1.900                                             
     2     54.4233040     23  1.900                                             
     3     27.2116520     23  1.800                                             
  local pseudopotential read in
  partial core-charges read in
  partial kinetic energy density read in
  kinetic energy density of atom read in
  atomic valenz-charges read in
  non local Contribution for L=           0  read in
    real space projection operators read in
  non local Contribution for L=           0  read in
    real space projection operators read in
  non local Contribution for L=           1  read in
    real space projection operators read in
  non local Contribution for L=           1  read in
    real space projection operators read in
  non local Contribution for L=           2  read in
    real space projection operators read in
  non local Contribution for L=           2  read in
    real space projection operators read in
    PAW grid and wavefunctions read in
 
   number of l-projection  operators is LMAX  =           6
   number of lm-projection operators is LMMAX =          18
 

 ----------------------------------------------------------------------------- 
|                                                                             |
|  ADVICE TO THIS USER RUNNING 'VASP/VAMP'   (HEAR YOUR MASTER'S VOICE ...):  |
|                                                                             |
|      You have a (more or less) 'large supercell' and for larger cells       |
|      it might be more efficient to use real space projection opertators     |
|      So try LREAL= Auto  in the INCAR   file.                               |
|      Mind: At the moment your POTCAR file does not contain real space       |
|       projectors, and has to be modified,  BUT if you                       |
|      want to do an extremely  accurate calculation you might also keep the  |
|      reciprocal projection scheme          (i.e. LREAL=.FALSE.)             |
|                                                                             |
 ----------------------------------------------------------------------------- 

  PAW_PBE Mo_sv_GW 05Dec2013            :
 energy of atom  1       EATOM=-1861.5185
 kinetic energy error for atom=    0.1105 (will be added to EATOM!!)
  PAW_PBE S_GW 19Mar2012                :
 energy of atom  2       EATOM= -276.8230
 kinetic energy error for atom=    0.0058 (will be added to EATOM!!)
 
 
 POSCAR: Mo  S                                   
  positions in cartesian coordinates
  No initial velocities read in
 exchange correlation table for  LEXCH =        8
   RHO(1)=    0.500       N(1)  =     2000
   RHO(2)=  100.500       N(2)  =     4000
 


--------------------------------------------------------------------------------------------------------


 ion  position               nearest neighbor table
   1  0.167  0.333  0.193-   7 2.41   8 2.41   7 2.41   8 2.41   7 2.41   8 2.41
   2  0.833  0.667  0.316-   9 2.41  10 2.41   9 2.41  10 2.41   9 2.41  10 2.41
   3  0.167  0.333  0.438-  11 2.41  12 2.41  11 2.41  12 2.41  11 2.41  12 2.41
   4  0.833  0.667  0.562-  13 2.41  14 2.41  13 2.41  14 2.41  13 2.41  14 2.41
   5  0.167  0.333  0.684-  15 2.41  16 2.41  15 2.41  16 2.41  15 2.41  16 2.41
   6  0.833  0.667  0.807-  17 2.41  18 2.41  17 2.41  18 2.41  17 2.41  18 2.41
   7  0.833  0.667  0.224-   1 2.41   1 2.41   1 2.41
   8  0.833  0.667  0.161-   1 2.41   1 2.41   1 2.41
   9  0.167  0.333  0.347-   2 2.41   2 2.41   2 2.41
  10  0.167  0.333  0.284-   2 2.41   2 2.41   2 2.41
  11  0.833  0.667  0.470-   3 2.41   3 2.41   3 2.41
  12  0.833  0.667  0.407-   3 2.41   3 2.41   3 2.41
  13  0.167  0.333  0.593-   4 2.41   4 2.41   4 2.41
  14  0.167  0.333  0.530-   4 2.41   4 2.41   4 2.41
  15  0.833  0.667  0.716-   5 2.41   5 2.41   5 2.41
  16  0.833  0.667  0.653-   5 2.41   5 2.41   5 2.41
  17  0.167  0.333  0.839-   6 2.41   6 2.41   6 2.41
  18  0.167  0.333  0.776-   6 2.41   6 2.41   6 2.41
 
  LATTYP: Found a hexagonal cell.
 ALAT       =     3.1840664647
 C/A-ratio  =    15.7031897903
  
  Lattice vectors:
  
 A1 = (   3.1840664647,   0.0000000000,   0.0000000000)
 A2 = (  -1.5920332323,   2.7574824458,   0.0000000000)
 A3 = (   0.0000000000,   0.0000000000,  50.0000000000)


Analysis of symmetry for initial positions (statically):
=====================================================================
 Subroutine PRICEL returns:
 Original cell was already a primitive cell.
 

 Routine SETGRP: Setting up the symmetry group for a 
 hexagonal supercell.


 Subroutine GETGRP returns: Found 12 space group operations
 (whereof  4 operations were pure point group operations)
 out of a pool of 24 trial point group operations.


The static configuration has the point symmetry C_2h.
 The point group associated with its full space group is D_3d.


Analysis of symmetry for dynamics (positions and initial velocities):
=====================================================================
 Subroutine PRICEL returns:
 Original cell was already a primitive cell.
 

 Routine SETGRP: Setting up the symmetry group for a 
 hexagonal supercell.


 Subroutine GETGRP returns: Found 12 space group operations
 (whereof  4 operations were pure point group operations)
 out of a pool of 24 trial point group operations.


The dynamic configuration has the point symmetry C_2h.
 The point group associated with its full space group is D_3d.


 Subroutine INISYM returns: Found 12 space group operations
 (whereof  4 operations are pure point group operations),
 and found     1 'primitive' translations

 
 
 KPOINTS: KPOINTS created by Atomic Simulation Env

Automatic generation of k-mesh.
Space group operators:
 irot       det(A)        alpha          n_x          n_y          n_z        tau_x        tau_y        tau_z
    1     1.000000     0.000000     1.000000     0.000000     0.000000     0.000000     0.000000     0.000000
    2    -1.000000     0.000000     1.000000     0.000000     0.000000     0.000000     0.000000     0.000000
    3     1.000000   180.000000     1.000000     0.000000     0.000000     0.000000     0.000000     0.000000
    4    -1.000000   180.000000     1.000000     0.000000     0.000000     0.000000     0.000000     0.000000
    5     1.000000   120.000000     0.000000     0.000000    -1.000000     0.500000     0.500000     0.000000
    6    -1.000000   120.000000     0.000000     0.000000    -1.000000     0.500000     0.500000     0.000000
    7     1.000000   120.000000     0.000000     0.000000     1.000000     0.000000     0.500000     0.000000
    8    -1.000000   120.000000     0.000000     0.000000     1.000000     0.000000     0.500000     0.000000
    9     1.000000   180.000000     0.500000    -0.866025     0.000000     0.000000     0.500000     0.000000
   10    -1.000000   180.000000     0.500000    -0.866025     0.000000     0.000000     0.500000     0.000000
   11     1.000000   180.000000    -0.500000    -0.866025     0.000000     0.500000     0.500000     0.000000
   12    -1.000000   180.000000    -0.500000    -0.866025     0.000000     0.500000     0.500000     0.000000
 
 Subroutine IBZKPT returns following result:
 ===========================================
 
 Found     37 irreducible k-points:
 
 Following reciprocal coordinates:
            Coordinates               Weight
  0.000000  0.000000  0.000000      1.000000
  0.055556  0.000000  0.000000      6.000000
  0.111111  0.000000  0.000000      6.000000
  0.166667  0.000000  0.000000      6.000000
  0.222222  0.000000  0.000000      6.000000
  0.277778  0.000000  0.000000      6.000000
  0.333333  0.000000  0.000000      6.000000
  0.388889  0.000000  0.000000      6.000000
  0.444444  0.000000  0.000000      6.000000
  0.500000  0.000000  0.000000      3.000000
  0.055556  0.055556  0.000000      6.000000
  0.111111  0.055556  0.000000     12.000000
  0.166667  0.055556  0.000000     12.000000
  0.222222  0.055556  0.000000     12.000000
  0.277778  0.055556  0.000000     12.000000
  0.333333  0.055556  0.000000     12.000000
  0.388889  0.055556  0.000000     12.000000
  0.444444  0.055556  0.000000     12.000000
  0.111111  0.111111  0.000000      6.000000
  0.166667  0.111111  0.000000     12.000000
  0.222222  0.111111  0.000000     12.000000
  0.277778  0.111111  0.000000     12.000000
  0.333333  0.111111  0.000000     12.000000
  0.388889  0.111111  0.000000     12.000000
  0.444444  0.111111  0.000000      6.000000
  0.166667  0.166667  0.000000      6.000000
  0.222222  0.166667  0.000000     12.000000
  0.277778  0.166667  0.000000     12.000000
  0.333333  0.166667  0.000000     12.000000
  0.388889  0.166667  0.000000     12.000000
  0.222222  0.222222  0.000000      6.000000
  0.277778  0.222222  0.000000     12.000000
  0.333333  0.222222  0.000000     12.000000
  0.388889  0.222222  0.000000      6.000000
  0.277778  0.277778  0.000000      6.000000
  0.333333  0.277778  0.000000     12.000000
  0.333333  0.333333  0.000000      2.000000
 
 Following cartesian coordinates:
            Coordinates               Weight
  0.000000  0.000000  0.000000      1.000000
  0.017448  0.010074  0.000000      6.000000
  0.034896  0.020147  0.000000      6.000000
  0.052344  0.030221  0.000000      6.000000
  0.069792  0.040294  0.000000      6.000000
  0.087240  0.050368  0.000000      6.000000
  0.104688  0.060442  0.000000      6.000000
  0.122136  0.070515  0.000000      6.000000
  0.139584  0.080589  0.000000      6.000000
  0.157032  0.090662  0.000000      3.000000
  0.017448  0.030221  0.000000      6.000000
  0.034896  0.040294  0.000000     12.000000
  0.052344  0.050368  0.000000     12.000000
  0.069792  0.060442  0.000000     12.000000
  0.087240  0.070515  0.000000     12.000000
  0.104688  0.080589  0.000000     12.000000
  0.122136  0.090662  0.000000     12.000000
  0.139584  0.100736  0.000000     12.000000
  0.034896  0.060442  0.000000      6.000000
  0.052344  0.070515  0.000000     12.000000
  0.069792  0.080589  0.000000     12.000000
  0.087240  0.090662  0.000000     12.000000
  0.104688  0.100736  0.000000     12.000000
  0.122136  0.110810  0.000000     12.000000
  0.139584  0.120883  0.000000      6.000000
  0.052344  0.090662  0.000000      6.000000
  0.069792  0.100736  0.000000     12.000000
  0.087240  0.110810  0.000000     12.000000
  0.104688  0.120883  0.000000     12.000000
  0.122136  0.130957  0.000000     12.000000
  0.069792  0.120883  0.000000      6.000000
  0.087240  0.130957  0.000000     12.000000
  0.104688  0.141030  0.000000     12.000000
  0.122136  0.151104  0.000000      6.000000
  0.087240  0.151104  0.000000      6.000000
  0.104688  0.161178  0.000000     12.000000
  0.104688  0.181325  0.000000      2.000000
 
 TETIRR: Found    169 inequivalent tetrahedra from     1944
 
 Subroutine IBZKPT_HF returns following result:
 ==============================================
 
 Found    324 k-points in 1st BZ
 the following    324 k-points will be used (e.g. in the exchange kernel)
 Following reciprocal coordinates:   # in IRBZ
  0.000000  0.000000  0.000000    0.00308642   1 t-inv F
  0.055556  0.000000  0.000000    0.00308642   2 t-inv F
  0.111111  0.000000  0.000000    0.00308642   3 t-inv F
  0.166667  0.000000  0.000000    0.00308642   4 t-inv F
  0.222222  0.000000  0.000000    0.00308642   5 t-inv F
  0.277778  0.000000  0.000000    0.00308642   6 t-inv F
  0.333333  0.000000  0.000000    0.00308642   7 t-inv F
  0.388889  0.000000  0.000000    0.00308642   8 t-inv F
  0.444444  0.000000  0.000000    0.00308642   9 t-inv F
  0.500000  0.000000  0.000000    0.00308642  10 t-inv F
  0.055556  0.055556  0.000000    0.00308642  11 t-inv F
  0.111111  0.055556  0.000000    0.00308642  12 t-inv F
  0.166667  0.055556  0.000000    0.00308642  13 t-inv F
  0.222222  0.055556  0.000000    0.00308642  14 t-inv F
  0.277778  0.055556  0.000000    0.00308642  15 t-inv F
  0.333333  0.055556  0.000000    0.00308642  16 t-inv F
  0.388889  0.055556  0.000000    0.00308642  17 t-inv F
  0.444444  0.055556  0.000000    0.00308642  18 t-inv F
  0.111111  0.111111  0.000000    0.00308642  19 t-inv F
  0.166667  0.111111  0.000000    0.00308642  20 t-inv F
  0.222222  0.111111  0.000000    0.00308642  21 t-inv F
  0.277778  0.111111  0.000000    0.00308642  22 t-inv F
  0.333333  0.111111  0.000000    0.00308642  23 t-inv F
  0.388889  0.111111  0.000000    0.00308642  24 t-inv F
  0.444444  0.111111  0.000000    0.00308642  25 t-inv F
  0.166667  0.166667  0.000000    0.00308642  26 t-inv F
  0.222222  0.166667  0.000000    0.00308642  27 t-inv F
  0.277778  0.166667  0.000000    0.00308642  28 t-inv F
  0.333333  0.166667  0.000000    0.00308642  29 t-inv F
  0.388889  0.166667  0.000000    0.00308642  30 t-inv F
  0.222222  0.222222  0.000000    0.00308642  31 t-inv F
  0.277778  0.222222  0.000000    0.00308642  32 t-inv F
  0.333333  0.222222  0.000000    0.00308642  33 t-inv F
  0.388889  0.222222  0.000000    0.00308642  34 t-inv F
  0.277778  0.277778  0.000000    0.00308642  35 t-inv F
  0.333333  0.277778  0.000000    0.00308642  36 t-inv F
  0.333333  0.333333  0.000000    0.00308642  37 t-inv F
 -0.055556 -0.000000 -0.000000    0.00308642   2 t-inv F
  0.055556 -0.055556 -0.000000    0.00308642   2 t-inv F
 -0.055556  0.055556  0.000000    0.00308642   2 t-inv F
  0.000000 -0.055556  0.000000    0.00308642   2 t-inv F
 -0.000000  0.055556 -0.000000    0.00308642   2 t-inv F
 -0.111111 -0.000000 -0.000000    0.00308642   3 t-inv F
  0.111111 -0.111111 -0.000000    0.00308642   3 t-inv F
 -0.111111  0.111111  0.000000    0.00308642   3 t-inv F
  0.000000 -0.111111  0.000000    0.00308642   3 t-inv F
 -0.000000  0.111111 -0.000000    0.00308642   3 t-inv F
 -0.166667 -0.000000 -0.000000    0.00308642   4 t-inv F
  0.166667 -0.166667 -0.000000    0.00308642   4 t-inv F
 -0.166667  0.166667  0.000000    0.00308642   4 t-inv F
  0.000000 -0.166667  0.000000    0.00308642   4 t-inv F
 -0.000000  0.166667 -0.000000    0.00308642   4 t-inv F
 -0.222222 -0.000000 -0.000000    0.00308642   5 t-inv F
  0.222222 -0.222222 -0.000000    0.00308642   5 t-inv F
 -0.222222  0.222222  0.000000    0.00308642   5 t-inv F
  0.000000 -0.222222  0.000000    0.00308642   5 t-inv F
 -0.000000  0.222222 -0.000000    0.00308642   5 t-inv F
 -0.277778 -0.000000 -0.000000    0.00308642   6 t-inv F
  0.277778 -0.277778 -0.000000    0.00308642   6 t-inv F
 -0.277778  0.277778  0.000000    0.00308642   6 t-inv F
  0.000000 -0.277778  0.000000    0.00308642   6 t-inv F
 -0.000000  0.277778 -0.000000    0.00308642   6 t-inv F
 -0.333333 -0.000000 -0.000000    0.00308642   7 t-inv F
  0.333333 -0.333333 -0.000000    0.00308642   7 t-inv F
 -0.333333  0.333333  0.000000    0.00308642   7 t-inv F
  0.000000 -0.333333  0.000000    0.00308642   7 t-inv F
 -0.000000  0.333333 -0.000000    0.00308642   7 t-inv F
 -0.388889 -0.000000 -0.000000    0.00308642   8 t-inv F
  0.388889 -0.388889 -0.000000    0.00308642   8 t-inv F
 -0.388889  0.388889  0.000000    0.00308642   8 t-inv F
  0.000000 -0.388889  0.000000    0.00308642   8 t-inv F
 -0.000000  0.388889 -0.000000    0.00308642   8 t-inv F
 -0.444444 -0.000000 -0.000000    0.00308642   9 t-inv F
  0.444444 -0.444444 -0.000000    0.00308642   9 t-inv F
 -0.444444  0.444444  0.000000    0.00308642   9 t-inv F
  0.000000 -0.444444  0.000000    0.00308642   9 t-inv F
 -0.000000  0.444444 -0.000000    0.00308642   9 t-inv F
  0.500000 -0.500000 -0.000000    0.00308642  10 t-inv F
  0.000000 -0.500000  0.000000    0.00308642  10 t-inv F
 -0.055556 -0.055556 -0.000000    0.00308642  11 t-inv F
  0.055556 -0.111111 -0.000000    0.00308642  11 t-inv F
 -0.055556  0.111111  0.000000    0.00308642  11 t-inv F
 -0.111111  0.055556  0.000000    0.00308642  11 t-inv F
  0.111111 -0.055556 -0.000000    0.00308642  11 t-inv F
 -0.111111 -0.055556 -0.000000    0.00308642  12 t-inv F
  0.111111 -0.166667 -0.000000    0.00308642  12 t-inv F
 -0.111111  0.166667  0.000000    0.00308642  12 t-inv F
 -0.166667  0.111111  0.000000    0.00308642  12 t-inv F
  0.166667 -0.111111 -0.000000    0.00308642  12 t-inv F
  0.055556 -0.166667  0.000000    0.00308642  12 t-inv F
 -0.055556  0.166667 -0.000000    0.00308642  12 t-inv F
 -0.166667  0.055556 -0.000000    0.00308642  12 t-inv F
  0.166667 -0.055556  0.000000    0.00308642  12 t-inv F
  0.055556  0.111111 -0.000000    0.00308642  12 t-inv F
 -0.055556 -0.111111  0.000000    0.00308642  12 t-inv F
 -0.166667 -0.055556 -0.000000    0.00308642  13 t-inv F
  0.166667 -0.222222 -0.000000    0.00308642  13 t-inv F
 -0.166667  0.222222  0.000000    0.00308642  13 t-inv F
 -0.222222  0.166667  0.000000    0.00308642  13 t-inv F
  0.222222 -0.166667 -0.000000    0.00308642  13 t-inv F
  0.055556 -0.222222  0.000000    0.00308642  13 t-inv F
 -0.055556  0.222222 -0.000000    0.00308642  13 t-inv F
 -0.222222  0.055556 -0.000000    0.00308642  13 t-inv F
  0.222222 -0.055556  0.000000    0.00308642  13 t-inv F
  0.055556  0.166667 -0.000000    0.00308642  13 t-inv F
 -0.055556 -0.166667  0.000000    0.00308642  13 t-inv F
 -0.222222 -0.055556 -0.000000    0.00308642  14 t-inv F
  0.222222 -0.277778 -0.000000    0.00308642  14 t-inv F
 -0.222222  0.277778  0.000000    0.00308642  14 t-inv F
 -0.277778  0.222222  0.000000    0.00308642  14 t-inv F
  0.277778 -0.222222 -0.000000    0.00308642  14 t-inv F
  0.055556 -0.277778  0.000000    0.00308642  14 t-inv F
 -0.055556  0.277778 -0.000000    0.00308642  14 t-inv F
 -0.277778  0.055556 -0.000000    0.00308642  14 t-inv F
  0.277778 -0.055556  0.000000    0.00308642  14 t-inv F
  0.055556  0.222222 -0.000000    0.00308642  14 t-inv F
 -0.055556 -0.222222  0.000000    0.00308642  14 t-inv F
 -0.277778 -0.055556 -0.000000    0.00308642  15 t-inv F
  0.277778 -0.333333 -0.000000    0.00308642  15 t-inv F
 -0.277778  0.333333  0.000000    0.00308642  15 t-inv F
 -0.333333  0.277778  0.000000    0.00308642  15 t-inv F
  0.333333 -0.277778 -0.000000    0.00308642  15 t-inv F
  0.055556 -0.333333  0.000000    0.00308642  15 t-inv F
 -0.055556  0.333333 -0.000000    0.00308642  15 t-inv F
 -0.333333  0.055556 -0.000000    0.00308642  15 t-inv F
  0.333333 -0.055556  0.000000    0.00308642  15 t-inv F
  0.055556  0.277778 -0.000000    0.00308642  15 t-inv F
 -0.055556 -0.277778  0.000000    0.00308642  15 t-inv F
 -0.333333 -0.055556 -0.000000    0.00308642  16 t-inv F
  0.333333 -0.388889 -0.000000    0.00308642  16 t-inv F
 -0.333333  0.388889  0.000000    0.00308642  16 t-inv F
 -0.388889  0.333333  0.000000    0.00308642  16 t-inv F
  0.388889 -0.333333 -0.000000    0.00308642  16 t-inv F
  0.055556 -0.388889  0.000000    0.00308642  16 t-inv F
 -0.055556  0.388889 -0.000000    0.00308642  16 t-inv F
 -0.388889  0.055556 -0.000000    0.00308642  16 t-inv F
  0.388889 -0.055556  0.000000    0.00308642  16 t-inv F
  0.055556  0.333333 -0.000000    0.00308642  16 t-inv F
 -0.055556 -0.333333  0.000000    0.00308642  16 t-inv F
 -0.388889 -0.055556 -0.000000    0.00308642  17 t-inv F
  0.388889 -0.444444 -0.000000    0.00308642  17 t-inv F
 -0.388889  0.444444  0.000000    0.00308642  17 t-inv F
 -0.444444  0.388889  0.000000    0.00308642  17 t-inv F
  0.444444 -0.388889 -0.000000    0.00308642  17 t-inv F
  0.055556 -0.444444  0.000000    0.00308642  17 t-inv F
 -0.055556  0.444444 -0.000000    0.00308642  17 t-inv F
 -0.444444  0.055556 -0.000000    0.00308642  17 t-inv F
  0.444444 -0.055556  0.000000    0.00308642  17 t-inv F
  0.055556  0.388889 -0.000000    0.00308642  17 t-inv F
 -0.055556 -0.388889  0.000000    0.00308642  17 t-inv F
 -0.444444 -0.055556 -0.000000    0.00308642  18 t-inv F
  0.444444 -0.500000 -0.000000    0.00308642  18 t-inv F
 -0.444444  0.500000  0.000000    0.00308642  18 t-inv F
 -0.500000  0.444444  0.000000    0.00308642  18 t-inv F
  0.500000 -0.444444 -0.000000    0.00308642  18 t-inv F
  0.055556 -0.500000  0.000000    0.00308642  18 t-inv F
 -0.055556  0.500000 -0.000000    0.00308642  18 t-inv F
 -0.500000  0.055556 -0.000000    0.00308642  18 t-inv F
  0.500000 -0.055556  0.000000    0.00308642  18 t-inv F
  0.055556  0.444444 -0.000000    0.00308642  18 t-inv F
 -0.055556 -0.444444  0.000000    0.00308642  18 t-inv F
 -0.111111 -0.111111 -0.000000    0.00308642  19 t-inv F
  0.111111 -0.222222 -0.000000    0.00308642  19 t-inv F
 -0.111111  0.222222  0.000000    0.00308642  19 t-inv F
 -0.222222  0.111111  0.000000    0.00308642  19 t-inv F
  0.222222 -0.111111 -0.000000    0.00308642  19 t-inv F
 -0.166667 -0.111111 -0.000000    0.00308642  20 t-inv F
  0.166667 -0.277778 -0.000000    0.00308642  20 t-inv F
 -0.166667  0.277778  0.000000    0.00308642  20 t-inv F
 -0.277778  0.166667  0.000000    0.00308642  20 t-inv F
  0.277778 -0.166667 -0.000000    0.00308642  20 t-inv F
  0.111111 -0.277778  0.000000    0.00308642  20 t-inv F
 -0.111111  0.277778 -0.000000    0.00308642  20 t-inv F
 -0.277778  0.111111 -0.000000    0.00308642  20 t-inv F
  0.277778 -0.111111  0.000000    0.00308642  20 t-inv F
  0.111111  0.166667 -0.000000    0.00308642  20 t-inv F
 -0.111111 -0.166667  0.000000    0.00308642  20 t-inv F
 -0.222222 -0.111111 -0.000000    0.00308642  21 t-inv F
  0.222222 -0.333333 -0.000000    0.00308642  21 t-inv F
 -0.222222  0.333333  0.000000    0.00308642  21 t-inv F
 -0.333333  0.222222  0.000000    0.00308642  21 t-inv F
  0.333333 -0.222222 -0.000000    0.00308642  21 t-inv F
  0.111111 -0.333333  0.000000    0.00308642  21 t-inv F
 -0.111111  0.333333 -0.000000    0.00308642  21 t-inv F
 -0.333333  0.111111 -0.000000    0.00308642  21 t-inv F
  0.333333 -0.111111  0.000000    0.00308642  21 t-inv F
  0.111111  0.222222 -0.000000    0.00308642  21 t-inv F
 -0.111111 -0.222222  0.000000    0.00308642  21 t-inv F
 -0.277778 -0.111111 -0.000000    0.00308642  22 t-inv F
  0.277778 -0.388889 -0.000000    0.00308642  22 t-inv F
 -0.277778  0.388889  0.000000    0.00308642  22 t-inv F
 -0.388889  0.277778  0.000000    0.00308642  22 t-inv F
  0.388889 -0.277778 -0.000000    0.00308642  22 t-inv F
  0.111111 -0.388889  0.000000    0.00308642  22 t-inv F
 -0.111111  0.388889 -0.000000    0.00308642  22 t-inv F
 -0.388889  0.111111 -0.000000    0.00308642  22 t-inv F
  0.388889 -0.111111  0.000000    0.00308642  22 t-inv F
  0.111111  0.277778 -0.000000    0.00308642  22 t-inv F
 -0.111111 -0.277778  0.000000    0.00308642  22 t-inv F
 -0.333333 -0.111111 -0.000000    0.00308642  23 t-inv F
  0.333333 -0.444444 -0.000000    0.00308642  23 t-inv F
 -0.333333  0.444444  0.000000    0.00308642  23 t-inv F
 -0.444444  0.333333  0.000000    0.00308642  23 t-inv F
  0.444444 -0.333333 -0.000000    0.00308642  23 t-inv F
  0.111111 -0.444444  0.000000    0.00308642  23 t-inv F
 -0.111111  0.444444 -0.000000    0.00308642  23 t-inv F
 -0.444444  0.111111 -0.000000    0.00308642  23 t-inv F
  0.444444 -0.111111  0.000000    0.00308642  23 t-inv F
  0.111111  0.333333 -0.000000    0.00308642  23 t-inv F
 -0.111111 -0.333333  0.000000    0.00308642  23 t-inv F
 -0.388889 -0.111111 -0.000000    0.00308642  24 t-inv F
  0.388889 -0.500000 -0.000000    0.00308642  24 t-inv F
 -0.388889  0.500000  0.000000    0.00308642  24 t-inv F
 -0.500000  0.388889  0.000000    0.00308642  24 t-inv F
  0.500000 -0.388889 -0.000000    0.00308642  24 t-inv F
  0.111111 -0.500000  0.000000    0.00308642  24 t-inv F
 -0.111111  0.500000 -0.000000    0.00308642  24 t-inv F
 -0.500000  0.111111 -0.000000    0.00308642  24 t-inv F
  0.500000 -0.111111  0.000000    0.00308642  24 t-inv F
  0.111111  0.388889 -0.000000    0.00308642  24 t-inv F
 -0.111111 -0.388889  0.000000    0.00308642  24 t-inv F
 -0.444444 -0.111111 -0.000000    0.00308642  25 t-inv F
  0.444444 -0.555556 -0.000000    0.00308642  25 t-inv F
 -0.444444  0.555556  0.000000    0.00308642  25 t-inv F
  0.111111 -0.555556  0.000000    0.00308642  25 t-inv F
 -0.111111  0.555556 -0.000000    0.00308642  25 t-inv F
 -0.166667 -0.166667 -0.000000    0.00308642  26 t-inv F
  0.166667 -0.333333 -0.000000    0.00308642  26 t-inv F
 -0.166667  0.333333  0.000000    0.00308642  26 t-inv F
 -0.333333  0.166667  0.000000    0.00308642  26 t-inv F
  0.333333 -0.166667 -0.000000    0.00308642  26 t-inv F
 -0.222222 -0.166667 -0.000000    0.00308642  27 t-inv F
  0.222222 -0.388889 -0.000000    0.00308642  27 t-inv F
 -0.222222  0.388889  0.000000    0.00308642  27 t-inv F
 -0.388889  0.222222  0.000000    0.00308642  27 t-inv F
  0.388889 -0.222222 -0.000000    0.00308642  27 t-inv F
  0.166667 -0.388889  0.000000    0.00308642  27 t-inv F
 -0.166667  0.388889 -0.000000    0.00308642  27 t-inv F
 -0.388889  0.166667 -0.000000    0.00308642  27 t-inv F
  0.388889 -0.166667  0.000000    0.00308642  27 t-inv F
  0.166667  0.222222 -0.000000    0.00308642  27 t-inv F
 -0.166667 -0.222222  0.000000    0.00308642  27 t-inv F
 -0.277778 -0.166667 -0.000000    0.00308642  28 t-inv F
  0.277778 -0.444444 -0.000000    0.00308642  28 t-inv F
 -0.277778  0.444444  0.000000    0.00308642  28 t-inv F
 -0.444444  0.277778  0.000000    0.00308642  28 t-inv F
  0.444444 -0.277778 -0.000000    0.00308642  28 t-inv F
  0.166667 -0.444444  0.000000    0.00308642  28 t-inv F
 -0.166667  0.444444 -0.000000    0.00308642  28 t-inv F
 -0.444444  0.166667 -0.000000    0.00308642  28 t-inv F
  0.444444 -0.166667  0.000000    0.00308642  28 t-inv F
  0.166667  0.277778 -0.000000    0.00308642  28 t-inv F
 -0.166667 -0.277778  0.000000    0.00308642  28 t-inv F
 -0.333333 -0.166667 -0.000000    0.00308642  29 t-inv F
  0.333333 -0.500000 -0.000000    0.00308642  29 t-inv F
 -0.333333  0.500000  0.000000    0.00308642  29 t-inv F
 -0.500000  0.333333  0.000000    0.00308642  29 t-inv F
  0.500000 -0.333333 -0.000000    0.00308642  29 t-inv F
  0.166667 -0.500000  0.000000    0.00308642  29 t-inv F
 -0.166667  0.500000 -0.000000    0.00308642  29 t-inv F
 -0.500000  0.166667 -0.000000    0.00308642  29 t-inv F
  0.500000 -0.166667  0.000000    0.00308642  29 t-inv F
  0.166667  0.333333 -0.000000    0.00308642  29 t-inv F
 -0.166667 -0.333333  0.000000    0.00308642  29 t-inv F
 -0.388889 -0.166667 -0.000000    0.00308642  30 t-inv F
  0.388889 -0.555556 -0.000000    0.00308642  30 t-inv F
 -0.388889  0.555556  0.000000    0.00308642  30 t-inv F
 -0.555556  0.388889  0.000000    0.00308642  30 t-inv F
  0.555556 -0.388889 -0.000000    0.00308642  30 t-inv F
  0.166667 -0.555556  0.000000    0.00308642  30 t-inv F
 -0.166667  0.555556 -0.000000    0.00308642  30 t-inv F
 -0.555556  0.166667 -0.000000    0.00308642  30 t-inv F
  0.555556 -0.166667  0.000000    0.00308642  30 t-inv F
  0.166667  0.388889 -0.000000    0.00308642  30 t-inv F
 -0.166667 -0.388889  0.000000    0.00308642  30 t-inv F
 -0.222222 -0.222222 -0.000000    0.00308642  31 t-inv F
  0.222222 -0.444444 -0.000000    0.00308642  31 t-inv F
 -0.222222  0.444444  0.000000    0.00308642  31 t-inv F
 -0.444444  0.222222  0.000000    0.00308642  31 t-inv F
  0.444444 -0.222222 -0.000000    0.00308642  31 t-inv F
 -0.277778 -0.222222 -0.000000    0.00308642  32 t-inv F
  0.277778 -0.500000 -0.000000    0.00308642  32 t-inv F
 -0.277778  0.500000  0.000000    0.00308642  32 t-inv F
 -0.500000  0.277778  0.000000    0.00308642  32 t-inv F
  0.500000 -0.277778 -0.000000    0.00308642  32 t-inv F
  0.222222 -0.500000  0.000000    0.00308642  32 t-inv F
 -0.222222  0.500000 -0.000000    0.00308642  32 t-inv F
 -0.500000  0.222222 -0.000000    0.00308642  32 t-inv F
  0.500000 -0.222222  0.000000    0.00308642  32 t-inv F
  0.222222  0.277778 -0.000000    0.00308642  32 t-inv F
 -0.222222 -0.277778  0.000000    0.00308642  32 t-inv F
 -0.333333 -0.222222 -0.000000    0.00308642  33 t-inv F
  0.333333 -0.555556 -0.000000    0.00308642  33 t-inv F
 -0.333333  0.555556  0.000000    0.00308642  33 t-inv F
 -0.555556  0.333333  0.000000    0.00308642  33 t-inv F
  0.555556 -0.333333 -0.000000    0.00308642  33 t-inv F
  0.222222 -0.555556  0.000000    0.00308642  33 t-inv F
 -0.222222  0.555556 -0.000000    0.00308642  33 t-inv F
 -0.555556  0.222222 -0.000000    0.00308642  33 t-inv F
  0.555556 -0.222222  0.000000    0.00308642  33 t-inv F
  0.222222  0.333333 -0.000000    0.00308642  33 t-inv F
 -0.222222 -0.333333  0.000000    0.00308642  33 t-inv F
 -0.388889 -0.222222 -0.000000    0.00308642  34 t-inv F
  0.388889 -0.611111 -0.000000    0.00308642  34 t-inv F
 -0.388889  0.611111  0.000000    0.00308642  34 t-inv F
  0.222222 -0.611111  0.000000    0.00308642  34 t-inv F
 -0.222222  0.611111 -0.000000    0.00308642  34 t-inv F
 -0.277778 -0.277778 -0.000000    0.00308642  35 t-inv F
  0.277778 -0.555556 -0.000000    0.00308642  35 t-inv F
 -0.277778  0.555556  0.000000    0.00308642  35 t-inv F
 -0.555556  0.277778  0.000000    0.00308642  35 t-inv F
  0.555556 -0.277778 -0.000000    0.00308642  35 t-inv F
 -0.333333 -0.277778 -0.000000    0.00308642  36 t-inv F
  0.333333 -0.611111 -0.000000    0.00308642  36 t-inv F
 -0.333333  0.611111  0.000000    0.00308642  36 t-inv F
 -0.611111  0.333333  0.000000    0.00308642  36 t-inv F
  0.611111 -0.333333 -0.000000    0.00308642  36 t-inv F
  0.277778 -0.611111  0.000000    0.00308642  36 t-inv F
 -0.277778  0.611111 -0.000000    0.00308642  36 t-inv F
 -0.611111  0.277778 -0.000000    0.00308642  36 t-inv F
  0.611111 -0.277778  0.000000    0.00308642  36 t-inv F
  0.277778  0.333333 -0.000000    0.00308642  36 t-inv F
 -0.277778 -0.333333  0.000000    0.00308642  36 t-inv F
 -0.333333 -0.333333 -0.000000    0.00308642  37 t-inv F


--------------------------------------------------------------------------------------------------------




 Dimension of arrays:
   k-points           NKPTS =     37   k-points in BZ     NKDIM =     37   number of bands    NBANDS=    112
   number of dos      NEDOS =    301   number of ions     NIONS =     18
   non local maximal  LDIM  =     11   non local SUM 2l+1 LMDIM =     41
   total plane-waves  NPLWV = 128000
   max r-space proj   IRMAX =      1   max aug-charges    IRDMAX=  11329
   dimension x,y,z NGX =    20 NGY =   20 NGZ =  320
   dimension x,y,z NGXF=    40 NGYF=   40 NGZF=  640
   support grid    NGXF=    40 NGYF=   40 NGZF=  640
   ions per type =               6  12
 NGX,Y,Z   is equivalent  to a cutoff of  10.44, 10.44, 10.64 a.u.
 NGXF,Y,Z  is equivalent  to a cutoff of  20.88, 20.88, 21.28 a.u.


 I would recommend the setting:
   dimension x,y,z NGX =    19 NGY =   19 NGZ =  303
 SYSTEM =  unknown system                          
 POSCAR =  Mo  S                                   

 Startparameter for this run:
   NWRITE =      2    write-flag & timer
   PREC   = accura    normal or accurate (medium, high low for compatibility)
   ISTART =      0    job   : 0-new  1-cont  2-samecut
   ICHARG =      2    charge: 1-file 2-atom 10-const
   ISPIN  =      1    spin polarized calculation?
   LNONCOLLINEAR =      F non collinear calculations
   LSORBIT =      F    spin-orbit coupling
   INIWAV =      1    electr: 0-lowe 1-rand  2-diag
   LASPH  =      F    aspherical Exc in radial PAW
   METAGGA=      F    non-selfconsistent MetaGGA calc.

 Electronic Relaxation 1
   ENCUT  =  344.9 eV  25.35 Ry    5.03 a.u.   4.82  4.82 75.72*2*pi/ulx,y,z
   ENINI  =  344.9     initial cutoff
   ENAUG  =  964.7 eV  augmentation charge cutoff
   NELM   =     60;   NELMIN=  5; NELMDL= -5     # of ELM steps 
   EDIFF  = 0.1E-07   stopping-criterion for ELM
   LREAL  =      F    real-space projection
   NLSPLINE    = F    spline interpolate recip. space projectors
   LCOMPAT=      F    compatible to vasp.4.4
   GGA_COMPAT  = T    GGA compatible to vasp.4.4-vasp.4.6
   LMAXPAW     = -100 max onsite density
   LMAXMIX     =    2 max onsite mixed and CHGCAR
   VOSKOWN=      0    Vosko Wilk Nusair interpolation
   ROPT   =    0.00000   0.00000
 Ionic relaxation
   EDIFFG = 0.1E-06   stopping-criterion for IOM
   NSW    =      0    number of steps for IOM
   NBLOCK =      1;   KBLOCK =      1    inner block; outer block 
   IBRION =     -1    ionic relax: 0-MD 1-quasi-New 2-CG
   NFREE  =      0    steps in history (QN), initial steepest desc. (CG)
   ISIF   =      2    stress and relaxation
   IWAVPR =     10    prediction:  0-non 1-charg 2-wave 3-comb
   ISYM   =      2    0-nonsym 1-usesym 2-fastsym
   LCORR  =      T    Harris-Foulkes like correction to forces

   POTIM  = 0.5000    time-step for ionic-motion
   TEIN   =    0.0    initial temperature
   TEBEG  =    0.0;   TEEND  =   0.0 temperature during run
   SMASS  =  -3.00    Nose mass-parameter (am)
   estimated Nose-frequenzy (Omega)   =  0.10E-29 period in steps =****** mass=  -0.232E-27a.u.
   SCALEE = 1.0000    scale energy and forces
   NPACO  =    256;   APACO  = 16.0  distance and # of slots for P.C.
   PSTRESS=    0.0 pullay stress

  Mass of Ions in am
   POMASS =  95.94 32.07
  Ionic Valenz
   ZVAL   =  14.00  6.00
  Atomic Wigner-Seitz radii
   RWIGS  =  -1.00 -1.00
  virtual crystal weights 
   VCA    =   1.00  1.00
   NELECT =     156.0000    total number of electrons
   NUPDOWN=      -1.0000    fix difference up-down

 DOS related values:
   EMIN   =  10.00;   EMAX   =-10.00  energy-range for DOS
   EFERMI =   0.00
   ISMEAR =    -5;   SIGMA  =   0.01  broadening in eV -4-tet -1-fermi 0-gaus

 Electronic relaxation 2 (details)
   IALGO  =     38    algorithm
   LDIAG  =      T    sub-space diagonalisation (order eigenvalues)
   LSUBROT=      F    optimize rotation matrix (better conditioning)
   TURBO    =      0    0=normal 1=particle mesh
   IRESTART =      0    0=no restart 2=restart with 2 vectors
   NREBOOT  =      0    no. of reboots
   NMIN     =      0    reboot dimension
   EREF     =   0.00    reference energy to select bands
   IMIX   =      4    mixing-type and parameters
     AMIX     =   0.40;   BMIX     =  1.00
     AMIX_MAG =   1.60;   BMIX_MAG =  1.00
     AMIN     =   0.10
     WC   =   100.;   INIMIX=   1;  MIXPRE=   1;  MAXMIX= -45

 Intra band minimization:
   WEIMIN = 0.0000     energy-eigenvalue tresh-hold
   EBREAK =  0.22E-10  absolut break condition
   DEPER  =   0.30     relativ break condition  

   TIME   =   0.40     timestep for ELM

  volume/ion in A,a.u.               =      24.39       164.58
  Fermi-wavevector in a.u.,A,eV,Ry     =   1.159564  2.191258 18.294240  1.344589
  Thomas-Fermi vector in A             =   2.296155
 
 Write flags
   LWAVE  =      T    write WAVECAR
   LCHARG =      T    write CHGCAR
   LVTOT  =      F    write LOCPOT, total local potential
   LVHAR  =      F    write LOCPOT, Hartree potential only
   LELF   =      F    write electronic localiz. function (ELF)
   LORBIT =      0    0 simple, 1 ext, 2 COOP (PROOUT)


 Dipole corrections
   LMONO  =      F    monopole corrections only (constant potential shift)
   LDIPOL =      F    correct potential (dipole corrections)
   IDIPOL =      0    1-x, 2-y, 3-z, 4-all directions 
   EPSILON=  1.0000000 bulk dielectric constant

 Exchange correlation treatment:
   GGA     =    PE    GGA type
   LEXCH   =     8    internal setting for exchange type
   VOSKOWN=      0    Vosko Wilk Nusair interpolation
   LHFCALC =     F    Hartree Fock is set to
   LHFONE  =     F    Hartree Fock one center treatment
   AEXX    =    0.0000 exact exchange contribution

 Linear response parameters
   LEPSILON=     T    determine dielectric tensor
   LRPA    =     F    only Hartree local field effects (RPA)
   LNABLA  =     F    use nabla operator in PAW spheres
   LVEL    =     F    velocity operator in full k-point grid
   LINTERFAST=   F  fast interpolation
   KINTER  =     0    interpolate to denser k-point grid
   CSHIFT  =0.1000    complex shift for real part using Kramers Kronig
   OMEGAMAX=  -1.0    maximum frequency
   DEG_THRESHOLD= 0.2000000E-02 threshold for treating states as degnerate
   RTIME   =    0.100 relaxation time in fs

 Orbital magnetization related:
   ORBITALMAG=     F  switch on orbital magnetization
   LCHIMAG   =     F  perturbation theory with respect to B field
   DQ        =  0.001000  dq finite difference perturbation B field



--------------------------------------------------------------------------------------------------------


 Static calculation
 charge density and potential will be updated during run
 non-spin polarized calculation
 Variant of blocked Davidson
 Davidson routine will perform the subspace rotation
 perform sub-space diagonalisation
    after iterative eigenvector-optimisation
 modified Broyden-mixing scheme, WC =      100.0
 initial mixing is a Kerker type mixing with AMIX =  0.4000 and BMIX =      1.0000
 Hartree-type preconditioning will be used
 using additional bands           34
 reciprocal scheme for non local part
 use partial core corrections
 calculate Harris-corrections to forces 
   (improved forces if not selfconsistent)
 use gradient corrections 
 use of overlap-Matrix (Vanderbilt PP)
 Fermi weights with tetrahedron method with Bloechl corrections


--------------------------------------------------------------------------------------------------------


  energy-cutoff  :      344.91
  volume of cell :      439.00
      direct lattice vectors                 reciprocal lattice vectors
     3.184066465  0.000000000  0.000000000     0.314063796  0.181324817  0.000000000
    -1.592033232  2.757482446  0.000000000     0.000000000  0.362649634  0.000000000
     0.000000000  0.000000000 50.000000000     0.000000000  0.000000000  0.020000000

  length of vectors
     3.184066465  3.184066465 50.000000000     0.362649634  0.362649634  0.020000000


 
 k-points in units of 2pi/SCALE and weight: KPOINTS created by Atomic Simulation Env
   0.00000000  0.00000000  0.00000000       0.003
   0.01744799  0.01007360  0.00000000       0.019
   0.03489598  0.02014720  0.00000000       0.019
   0.05234397  0.03022080  0.00000000       0.019
   0.06979195  0.04029440  0.00000000       0.019
   0.08723994  0.05036800  0.00000000       0.019
   0.10468793  0.06044161  0.00000000       0.019
   0.12213592  0.07051521  0.00000000       0.019
   0.13958391  0.08058881  0.00000000       0.019
   0.15703190  0.09066241  0.00000000       0.009
   0.01744799  0.03022080  0.00000000       0.019
   0.03489598  0.04029440  0.00000000       0.037
   0.05234397  0.05036800  0.00000000       0.037
   0.06979195  0.06044161  0.00000000       0.037
   0.08723994  0.07051521  0.00000000       0.037
   0.10468793  0.08058881  0.00000000       0.037
   0.12213592  0.09066241  0.00000000       0.037
   0.13958391  0.10073601  0.00000000       0.037
   0.03489598  0.06044161  0.00000000       0.019
   0.05234397  0.07051521  0.00000000       0.037
   0.06979195  0.08058881  0.00000000       0.037
   0.08723994  0.09066241  0.00000000       0.037
   0.10468793  0.10073601  0.00000000       0.037
   0.12213592  0.11080961  0.00000000       0.037
   0.13958391  0.12088321  0.00000000       0.019
   0.05234397  0.09066241  0.00000000       0.019
   0.06979195  0.10073601  0.00000000       0.037
   0.08723994  0.11080961  0.00000000       0.037
   0.10468793  0.12088321  0.00000000       0.037
   0.12213592  0.13095681  0.00000000       0.037
   0.06979195  0.12088321  0.00000000       0.019
   0.08723994  0.13095681  0.00000000       0.037
   0.10468793  0.14103041  0.00000000       0.037
   0.12213592  0.15110401  0.00000000       0.019
   0.08723994  0.15110401  0.00000000       0.019
   0.10468793  0.16117762  0.00000000       0.037
   0.10468793  0.18132482  0.00000000       0.006
 
 k-points in reciprocal lattice and weights: KPOINTS created by Atomic Simulation Env
   0.00000000  0.00000000  0.00000000       0.003
   0.05555556  0.00000000  0.00000000       0.019
   0.11111111  0.00000000  0.00000000       0.019
   0.16666667  0.00000000  0.00000000       0.019
   0.22222222  0.00000000  0.00000000       0.019
   0.27777778  0.00000000  0.00000000       0.019
   0.33333333  0.00000000  0.00000000       0.019
   0.38888889  0.00000000  0.00000000       0.019
   0.44444444  0.00000000  0.00000000       0.019
   0.50000000  0.00000000  0.00000000       0.009
   0.05555556  0.05555556  0.00000000       0.019
   0.11111111  0.05555556  0.00000000       0.037
   0.16666667  0.05555556  0.00000000       0.037
   0.22222222  0.05555556  0.00000000       0.037
   0.27777778  0.05555556  0.00000000       0.037
   0.33333333  0.05555556  0.00000000       0.037
   0.38888889  0.05555556  0.00000000       0.037
   0.44444444  0.05555556  0.00000000       0.037
   0.11111111  0.11111111  0.00000000       0.019
   0.16666667  0.11111111  0.00000000       0.037
   0.22222222  0.11111111  0.00000000       0.037
   0.27777778  0.11111111  0.00000000       0.037
   0.33333333  0.11111111  0.00000000       0.037
   0.38888889  0.11111111  0.00000000       0.037
   0.44444444  0.11111111  0.00000000       0.019
   0.16666667  0.16666667  0.00000000       0.019
   0.22222222  0.16666667  0.00000000       0.037
   0.27777778  0.16666667  0.00000000       0.037
   0.33333333  0.16666667  0.00000000       0.037
   0.38888889  0.16666667  0.00000000       0.037
   0.22222222  0.22222222  0.00000000       0.019
   0.27777778  0.22222222  0.00000000       0.037
   0.33333333  0.22222222  0.00000000       0.037
   0.38888889  0.22222222  0.00000000       0.019
   0.27777778  0.27777778  0.00000000       0.019
   0.33333333  0.27777778  0.00000000       0.037
   0.33333333  0.33333333  0.00000000       0.006
 
 position of ions in fractional coordinates (direct lattice) 
   0.16666667  0.33333333  0.19250000
   0.83333333  0.66666667  0.31550000
   0.16666667  0.33333333  0.43850000
   0.83333333  0.66666667  0.56150000
   0.16666667  0.33333333  0.68450000
   0.83333333  0.66666667  0.80750000
   0.83333333  0.66666667  0.22377113
   0.83333333  0.66666667  0.16122887
   0.16666667  0.33333333  0.34677113
   0.16666667  0.33333333  0.28422887
   0.83333333  0.66666667  0.46977113
   0.83333333  0.66666667  0.40722887
   0.16666667  0.33333333  0.59277113
   0.16666667  0.33333333  0.53022887
   0.83333333  0.66666667  0.71577113
   0.83333333  0.66666667  0.65322887
   0.16666667  0.33333333  0.83877113
   0.16666667  0.33333333  0.77622887
 
 position of ions in cartesian coordinates  (Angst):
  -0.00000000  0.91916082  9.62500000
   1.59203323  1.83832163 15.77500000
  -0.00000000  0.91916082 21.92500000
   1.59203323  1.83832163 28.07500000
  -0.00000000  0.91916082 34.22500000
   1.59203323  1.83832163 40.37500000
   1.59203323  1.83832163 11.18855632
   1.59203323  1.83832163  8.06144368
  -0.00000000  0.91916082 17.33855632
  -0.00000000  0.91916082 14.21144368
   1.59203323  1.83832163 23.48855632
   1.59203323  1.83832163 20.36144368
  -0.00000000  0.91916082 29.63855632
  -0.00000000  0.91916082 26.51144368
   1.59203323  1.83832163 35.78855632
   1.59203323  1.83832163 32.66144368
  -0.00000000  0.91916082 41.93855632
  -0.00000000  0.91916082 38.81144368
 


--------------------------------------------------------------------------------------------------------


 k-point  1 :   0.0000 0.0000 0.0000  plane waves:    6379
 k-point  2 :   0.0556 0.0000 0.0000  plane waves:    6371
 k-point  3 :   0.1111 0.0000 0.0000  plane waves:    6357
 k-point  4 :   0.1667 0.0000 0.0000  plane waves:    6343
 k-point  5 :   0.2222 0.0000 0.0000  plane waves:    6348
 k-point  6 :   0.2778 0.0000 0.0000  plane waves:    6382
 k-point  7 :   0.3333 0.0000 0.0000  plane waves:    6374
 k-point  8 :   0.3889 0.0000 0.0000  plane waves:    6386
 k-point  9 :   0.4444 0.0000 0.0000  plane waves:    6428
 k-point 10 :   0.5000 0.0000 0.0000  plane waves:    6428
 k-point 11 :   0.0556 0.0556 0.0000  plane waves:    6371
 k-point 12 :   0.1111 0.0556 0.0000  plane waves:    6351
 k-point 13 :   0.1667 0.0556 0.0000  plane waves:    6336
 k-point 14 :   0.2222 0.0556 0.0000  plane waves:    6361
 k-point 15 :   0.2778 0.0556 0.0000  plane waves:    6389
 k-point 16 :   0.3333 0.0556 0.0000  plane waves:    6385
 k-point 17 :   0.3889 0.0556 0.0000  plane waves:    6391
 k-point 18 :   0.4444 0.0556 0.0000  plane waves:    6418
 k-point 19 :   0.1111 0.1111 0.0000  plane waves:    6345
 k-point 20 :   0.1667 0.1111 0.0000  plane waves:    6341
 k-point 21 :   0.2222 0.1111 0.0000  plane waves:    6378
 k-point 22 :   0.2778 0.1111 0.0000  plane waves:    6385
 k-point 23 :   0.3333 0.1111 0.0000  plane waves:    6389
 k-point 24 :   0.3889 0.1111 0.0000  plane waves:    6407
 k-point 25 :   0.4444 0.1111 0.0000  plane waves:    6404
 k-point 26 :   0.1667 0.1667 0.0000  plane waves:    6345
 k-point 27 :   0.2222 0.1667 0.0000  plane waves:    6372
 k-point 28 :   0.2778 0.1667 0.0000  plane waves:    6381
 k-point 29 :   0.3333 0.1667 0.0000  plane waves:    6400
 k-point 30 :   0.3889 0.1667 0.0000  plane waves:    6418
 k-point 31 :   0.2222 0.2222 0.0000  plane waves:    6397
 k-point 32 :   0.2778 0.2222 0.0000  plane waves:    6386
 k-point 33 :   0.3333 0.2222 0.0000  plane waves:    6422
 k-point 34 :   0.3889 0.2222 0.0000  plane waves:    6455
 k-point 35 :   0.2778 0.2778 0.0000  plane waves:    6407
 k-point 36 :   0.3333 0.2778 0.0000  plane waves:    6434
 k-point 37 :   0.3333 0.3333 0.0000  plane waves:    6429

 maximum and minimum number of plane-waves per node :      6455     6336

 maximum number of plane-waves:      6455
 maximum index in each direction: 
   IXMAX=    4   IYMAX=    4   IZMAX=   75
   IXMIN=   -5   IYMIN=   -5   IZMIN=  -75

 NGX is ok and might be reduce to  20
 NGY is ok and might be reduce to  20
 NGZ is ok and might be reduce to 302

 serial   3D FFT for wavefunctions
 parallel 3D FFT for charge:
    minimum data exchange during FFTs selected (reduces bandwidth)


 total amount of memory used by VASP on root node   216865. kBytes
========================================================================

   base      :      30000. kBytes
   nonl-proj :     158854. kBytes
   fftplans  :       2116. kBytes
   grid      :       8000. kBytes
   one-center:       1452. kBytes
   wavefun   :      16443. kBytes
 
     INWAV:  cpu time    0.0000: real time    0.0000
 Broyden mixing: mesh for mixing (old mesh)
   NGX =  9   NGY =  9   NGZ =151
  (NGX  = 40   NGY  = 40   NGZ  =640)
  gives a total of  12231 points

 initial charge density was supplied:
 charge density of overlapping atoms calculated
 number of electron     156.0000000 magnetization 
 keeping initial charge density in first step


--------------------------------------------------------------------------------------------------------


 Maximum index for augmentation-charges          908 (set IRDMAX)


--------------------------------------------------------------------------------------------------------


 First call to EWALD:  gamma=   0.233
 Maximum number of real-space cells 7x 7x 1
 Maximum number of reciprocal cells 1x 1x15

 FEWALD executed in parallel
    FEWALD:  cpu time    0.0090: real time    0.0098


----------------------------------------- Iteration    1(   1)  ---------------------------------------


    POTLOK:  cpu time    0.2090: real time    0.2097
    SETDIJ:  cpu time    0.0550: real time    0.0557
     EDDAV:  cpu time   64.3642: real time   65.7836
 BZINTS: Fermi energy: 15.541195;156.000000 electrons
         Band energy:-676.017656;  BLOECHL correction: -0.078820
       DOS:  cpu time    0.2490: real time    0.2488
    --------------------------------------------
      LOOP:  cpu time   64.8841: real time   66.3093

 eigenvalue-minimisations  :  9408
 total energy-change (2. order) : 0.1019818E+04  (-0.6886347E+04)
 number of electron     156.0000000 magnetization 
 augmentation part      156.0000000 magnetization 

 Free energy of the ion-electron system (eV)
  ---------------------------------------------------
  alpha Z        PSCENC =       392.04011483
  Ewald energy   TEWEN  =     65539.03796784
  -Hartree energ DENC   =    -79346.88179317
  -exchange      EXHF   =         0.00000000
  -V(xc)+E(xc)   XCENC  =       502.61935187
  PAW double counting   =     11715.67114386   -11596.90495150
  entropy T*S    EENTRO =         0.00000000
  eigenvalues    EBANDS =      -676.01765624
  atomic energy  EATOM  =     14490.25373403
  Solvation  Ediel_sol  =         0.00000000
  ---------------------------------------------------
  free energy    TOTEN  =      1019.81791150 eV

  energy without entropy =     1019.81791150  energy(sigma->0) =     1019.81791150


--------------------------------------------------------------------------------------------------------




----------------------------------------- Iteration    1(   2)  ---------------------------------------


     EDDAV:  cpu time   83.0614: real time   85.6326
 BZINTS: Fermi energy:  6.419357;156.000000 electrons
         Band energy:***********;  BLOECHL correction:  0.000000
       DOS:  cpu time    0.0570: real time    0.0573
    --------------------------------------------
      LOOP:  cpu time   83.1314: real time   85.7299

 eigenvalue-minimisations  : 12096
 total energy-change (2. order) :-0.1086164E+04  (-0.1050915E+04)
 number of electron     156.0000000 magnetization 
 augmentation part      156.0000000 magnetization 

 Free energy of the ion-electron system (eV)
  ---------------------------------------------------
  alpha Z        PSCENC =       392.04011483
  Ewald energy   TEWEN  =     65539.03796784
  -Hartree energ DENC   =    -79346.88179317
  -exchange      EXHF   =         0.00000000
  -V(xc)+E(xc)   XCENC  =       502.61935187
  PAW double counting   =     11715.67114386   -11596.90495150
  entropy T*S    EENTRO =         0.00000000
  eigenvalues    EBANDS =     -1762.18184267
  atomic energy  EATOM  =     14490.25373403
  Solvation  Ediel_sol  =         0.00000000
  ---------------------------------------------------
  free energy    TOTEN  =       -66.34627492 eV

  energy without entropy =      -66.34627492  energy(sigma->0) =      -66.34627492


--------------------------------------------------------------------------------------------------------




----------------------------------------- Iteration    1(   3)  ---------------------------------------


     EDDAV:  cpu time   80.5778: real time   82.8696
 BZINTS: Fermi energy:  5.268200;156.000000 electrons
         Band energy:***********;  BLOECHL correction:  0.000000
       DOS:  cpu time    0.0530: real time    0.0540
    --------------------------------------------
      LOOP:  cpu time   80.6777: real time   83.0191

 eigenvalue-minimisations  : 11984
 total energy-change (2. order) :-0.8698130E+02  (-0.8589148E+02)
 number of electron     156.0000000 magnetization 
 augmentation part      156.0000000 magnetization 

 Free energy of the ion-electron system (eV)
  ---------------------------------------------------
  alpha Z        PSCENC =       392.04011483
  Ewald energy   TEWEN  =     65539.03796784
  -Hartree energ DENC   =    -79346.88179317
  -exchange      EXHF   =         0.00000000
  -V(xc)+E(xc)   XCENC  =       502.61935187
  PAW double counting   =     11715.67114386   -11596.90495150
  entropy T*S    EENTRO =         0.00000000
  eigenvalues    EBANDS =     -1849.16314268
  atomic energy  EATOM  =     14490.25373403
  Solvation  Ediel_sol  =         0.00000000
  ---------------------------------------------------
  free energy    TOTEN  =      -153.32757494 eV

  energy without entropy =     -153.32757494  energy(sigma->0) =     -153.32757494


--------------------------------------------------------------------------------------------------------




----------------------------------------- Iteration    1(   4)  ---------------------------------------


     EDDAV:  cpu time  104.1732: real time  108.1370
 BZINTS: Fermi energy:  5.199649;156.000000 electrons
         Band energy:***********;  BLOECHL correction:  0.000000
       DOS:  cpu time    0.0510: real time    0.0509
    --------------------------------------------
      LOOP:  cpu time  104.2522: real time  108.2513

 eigenvalue-minimisations  : 15848
 total energy-change (2. order) :-0.3707938E+01  (-0.3694312E+01)
 number of electron     156.0000000 magnetization 
 augmentation part      156.0000000 magnetization 

 Free energy of the ion-electron system (eV)
  ---------------------------------------------------
  alpha Z        PSCENC =       392.04011483
  Ewald energy   TEWEN  =     65539.03796784
  -Hartree energ DENC   =    -79346.88179317
  -exchange      EXHF   =         0.00000000
  -V(xc)+E(xc)   XCENC  =       502.61935187
  PAW double counting   =     11715.67114386   -11596.90495150
  entropy T*S    EENTRO =         0.00000000
  eigenvalues    EBANDS =     -1852.87108061
  atomic energy  EATOM  =     14490.25373403
  Solvation  Ediel_sol  =         0.00000000
  ---------------------------------------------------
  free energy    TOTEN  =      -157.03551286 eV

  energy without entropy =     -157.03551286  energy(sigma->0) =     -157.03551286


--------------------------------------------------------------------------------------------------------




----------------------------------------- Iteration    1(   5)  ---------------------------------------


     EDDAV:  cpu time   80.7837: real time   83.2173
 BZINTS: Fermi energy:  5.274760;156.000000 electrons
         Band energy:***********;  BLOECHL correction:  0.000000
       DOS:  cpu time    0.0540: real time    0.0537
    CHARGE:  cpu time    1.6118: real time    1.6228
    MIXING:  cpu time    0.0070: real time    0.0077
    --------------------------------------------
      LOOP:  cpu time   82.4725: real time   84.9382

 eigenvalue-minimisations  : 11788
 total energy-change (2. order) :-0.3437461E-01  (-0.3435199E-01)
 number of electron     155.9999997 magnetization 
 augmentation part      -10.8708211 magnetization 

 Broyden mixing:
  rms(total) = 0.25822E+01    rms(broyden)= 0.25806E+01
  rms(prec ) = 0.26475E+01
  weight for this iteration     100.00

 Free energy of the ion-electron system (eV)
  ---------------------------------------------------
  alpha Z        PSCENC =       392.04011483
  Ewald energy   TEWEN  =     65539.03796784
  -Hartree energ DENC   =    -79346.88179317
  -exchange      EXHF   =         0.00000000
  -V(xc)+E(xc)   XCENC  =       502.61935187
  PAW double counting   =     11715.67114386   -11596.90495150
  entropy T*S    EENTRO =         0.00000000
  eigenvalues    EBANDS =     -1852.90545522
  atomic energy  EATOM  =     14490.25373403
  Solvation  Ediel_sol  =         0.00000000
  ---------------------------------------------------
  free energy    TOTEN  =      -157.06988747 eV

  energy without entropy =     -157.06988747  energy(sigma->0) =     -157.06988747


--------------------------------------------------------------------------------------------------------




----------------------------------------- Iteration    1(   6)  ---------------------------------------


    POTLOK:  cpu time    0.1980: real time    0.1991
    SETDIJ:  cpu time    0.0540: real time    0.0549
     EDDAV:  cpu time   84.2452: real time   85.2176
 BZINTS: Fermi energy:  3.596820;156.000000 electrons
         Band energy:***********;  BLOECHL correction:  0.000000
       DOS:  cpu time    0.0670: real time    0.0671
    CHARGE:  cpu time    1.6687: real time    1.6822
    MIXING:  cpu time    0.0070: real time    0.0075
    --------------------------------------------
      LOOP:  cpu time   86.2429: real time   87.2581

 eigenvalue-minimisations  : 13692
 total energy-change (2. order) : 0.1690430E+02  (-0.9394454E+01)
 number of electron     156.0000002 magnetization 
 augmentation part       -7.9420233 magnetization 

 Broyden mixing:
  rms(total) = 0.13003E+01    rms(broyden)= 0.12997E+01
  rms(prec ) = 0.13516E+01
  weight for this iteration     100.00

 eigenvalues of (default mixing * dielectric matrix)
  average eigenvalue GAMMA=   0.7293
  0.7293

 Free energy of the ion-electron system (eV)
  ---------------------------------------------------
  alpha Z        PSCENC =       392.04011483
  Ewald energy   TEWEN  =     65539.03796784
  -Hartree energ DENC   =    -79041.15474826
  -exchange      EXHF   =         0.00000000
  -V(xc)+E(xc)   XCENC  =       495.49601597
  PAW double counting   =     11223.26041887   -11112.30803815
  entropy T*S    EENTRO =         0.00000000
  eigenvalues    EBANDS =     -2126.79105469
  atomic energy  EATOM  =     14490.25373403
  Solvation  Ediel_sol  =         0.00000000
  ---------------------------------------------------
  free energy    TOTEN  =      -140.16558956 eV

  energy without entropy =     -140.16558956  energy(sigma->0) =     -140.16558956


--------------------------------------------------------------------------------------------------------




----------------------------------------- Iteration    1(   7)  ---------------------------------------


    POTLOK:  cpu time    0.1980: real time    0.1995
    SETDIJ:  cpu time    0.0540: real time    0.0535
     EDDAV:  cpu time   82.0485: real time   83.4472
 BZINTS: Fermi energy:  4.286057;156.000000 electrons
         Band energy:***********;  BLOECHL correction:  0.000000
       DOS:  cpu time    0.0540: real time    0.0556
    CHARGE:  cpu time    1.6158: real time    1.6277
    MIXING:  cpu time    0.0080: real time    0.0076
    --------------------------------------------
      LOOP:  cpu time   83.9822: real time   85.4191

 eigenvalue-minimisations  : 13328
 total energy-change (2. order) : 0.4440980E+01  (-0.2809410E+01)
 number of electron     156.0000000 magnetization 
 augmentation part       -9.1100114 magnetization 

 Broyden mixing:
  rms(total) = 0.72701E+00    rms(broyden)= 0.72677E+00
  rms(prec ) = 0.73224E+00
  weight for this iteration     100.00

 eigenvalues of (default mixing * dielectric matrix)
  average eigenvalue GAMMA=   1.4802
  2.3490  0.6114

 Free energy of the ion-electron system (eV)
  ---------------------------------------------------
  alpha Z        PSCENC =       392.04011483
  Ewald energy   TEWEN  =     65539.03796784
  -Hartree energ DENC   =    -79175.44033971
  -exchange      EXHF   =         0.00000000
  -V(xc)+E(xc)   XCENC  =       497.49797994
  PAW double counting   =     11529.82636878   -11415.08704858
  entropy T*S    EENTRO =         0.00000000
  eigenvalues    EBANDS =     -1993.85338690
  atomic energy  EATOM  =     14490.25373403
  Solvation  Ediel_sol  =         0.00000000
  ---------------------------------------------------
  free energy    TOTEN  =      -135.72460978 eV

  energy without entropy =     -135.72460978  energy(sigma->0) =     -135.72460978


--------------------------------------------------------------------------------------------------------




----------------------------------------- Iteration    1(   8)  ---------------------------------------


    POTLOK:  cpu time    0.2010: real time    0.2026
    SETDIJ:  cpu time    0.0540: real time    0.0537
     EDDAV:  cpu time   75.0156: real time   75.9395
 BZINTS: Fermi energy:  3.892245;156.000000 electrons
         Band energy:***********;  BLOECHL correction:  0.000000
       DOS:  cpu time    0.0570: real time    0.0567
    CHARGE:  cpu time    1.6967: real time    1.7080
    MIXING:  cpu time    0.0070: real time    0.0063
    --------------------------------------------
      LOOP:  cpu time   77.0363: real time   77.9937

 eigenvalue-minimisations  : 12292
 total energy-change (2. order) : 0.3250704E+00  (-0.2387934E+00)
 number of electron     156.0000001 magnetization 
 augmentation part       -8.8628294 magnetization 

 Broyden mixing:
  rms(total) = 0.12976E+00    rms(broyden)= 0.12970E+00
  rms(prec ) = 0.13277E+00
  weight for this iteration     100.00

 eigenvalues of (default mixing * dielectric matrix)
  average eigenvalue GAMMA=   1.3686
  0.5936  1.0632  2.4490

 Free energy of the ion-electron system (eV)
  ---------------------------------------------------
  alpha Z        PSCENC =       392.04011483
  Ewald energy   TEWEN  =     65539.03796784
  -Hartree energ DENC   =    -79139.19438672
  -exchange      EXHF   =         0.00000000
  -V(xc)+E(xc)   XCENC  =       496.33412148
  PAW double counting   =     11520.18143240   -11405.31704337
  entropy T*S    EENTRO =         0.00000000
  eigenvalues    EBANDS =     -2028.73547982
  atomic energy  EATOM  =     14490.25373403
  Solvation  Ediel_sol  =         0.00000000
  ---------------------------------------------------
  free energy    TOTEN  =      -135.39953934 eV

  energy without entropy =     -135.39953934  energy(sigma->0) =     -135.39953934


--------------------------------------------------------------------------------------------------------




----------------------------------------- Iteration    1(   9)  ---------------------------------------


    POTLOK:  cpu time    0.1980: real time    0.1996
    SETDIJ:  cpu time    0.0540: real time    0.0543
     EDDAV:  cpu time   70.6673: real time   71.8883
 BZINTS: Fermi energy:  4.094173;156.000000 electrons
         Band energy:***********;  BLOECHL correction:  0.000000
       DOS:  cpu time    0.0580: real time    0.0573
    CHARGE:  cpu time    1.6248: real time    1.6373
    MIXING:  cpu time    0.0070: real time    0.0072
    --------------------------------------------
      LOOP:  cpu time   72.6120: real time   73.8723

 eigenvalue-minimisations  : 11648
 total energy-change (2. order) : 0.2032296E-01  (-0.2164282E-01)
 number of electron     156.0000001 magnetization 
 augmentation part       -8.9452899 magnetization 

 Broyden mixing:
  rms(total) = 0.68918E-01    rms(broyden)= 0.68912E-01
  rms(prec ) = 0.69484E-01
  weight for this iteration     100.00

 eigenvalues of (default mixing * dielectric matrix)
  average eigenvalue GAMMA=   1.3368
  2.5290  1.4116  0.5943  0.8124

 Free energy of the ion-electron system (eV)
  ---------------------------------------------------
  alpha Z        PSCENC =       392.04011483
  Ewald energy   TEWEN  =     65539.03796784
  -Hartree energ DENC   =    -79153.49957652
  -exchange      EXHF   =         0.00000000
  -V(xc)+E(xc)   XCENC  =       496.64655419
  PAW double counting   =     11555.73708396   -11440.41328223
  entropy T*S    EENTRO =         0.00000000
  eigenvalues    EBANDS =     -2015.18181248
  atomic energy  EATOM  =     14490.25373403
  Solvation  Ediel_sol  =         0.00000000
  ---------------------------------------------------
  free energy    TOTEN  =      -135.37921638 eV

  energy without entropy =     -135.37921638  energy(sigma->0) =     -135.37921638


--------------------------------------------------------------------------------------------------------




----------------------------------------- Iteration    1(  10)  ---------------------------------------


    POTLOK:  cpu time    0.1980: real time    0.1991
    SETDIJ:  cpu time    0.0540: real time    0.0534
     EDDAV:  cpu time   82.7934: real time   83.6540
 BZINTS: Fermi energy:  4.073339;156.000000 electrons
         Band energy:***********;  BLOECHL correction:  0.000000
       DOS:  cpu time    0.0530: real time    0.0530
    CHARGE:  cpu time    1.7227: real time    1.7328
    MIXING:  cpu time    0.0070: real time    0.0076
    --------------------------------------------
      LOOP:  cpu time   84.8331: real time   85.7495

 eigenvalue-minimisations  : 13300
 total energy-change (2. order) : 0.2413342E-02  (-0.4057817E-02)
 number of electron     156.0000001 magnetization 
 augmentation part       -8.9910797 magnetization 

 Broyden mixing:
  rms(total) = 0.33136E-01    rms(broyden)= 0.33129E-01
  rms(prec ) = 0.33531E-01
  weight for this iteration     100.00

 eigenvalues of (default mixing * dielectric matrix)
  average eigenvalue GAMMA=   1.3835
  2.6375  1.7520  0.5984  1.0734  0.8563

 Free energy of the ion-electron system (eV)
  ---------------------------------------------------
  alpha Z        PSCENC =       392.04011483
  Ewald energy   TEWEN  =     65539.03796784
  -Hartree energ DENC   =    -79158.54049825
  -exchange      EXHF   =         0.00000000
  -V(xc)+E(xc)   XCENC  =       496.82636604
  PAW double counting   =     11572.20519510   -11456.71902912
  entropy T*S    EENTRO =         0.00000000
  eigenvalues    EBANDS =     -2010.48065350
  atomic energy  EATOM  =     14490.25373403
  Solvation  Ediel_sol  =         0.00000000
  ---------------------------------------------------
  free energy    TOTEN  =      -135.37680304 eV

  energy without entropy =     -135.37680304  energy(sigma->0) =     -135.37680304


--------------------------------------------------------------------------------------------------------




----------------------------------------- Iteration    1(  11)  ---------------------------------------


    POTLOK:  cpu time    0.1990: real time    0.2008
    SETDIJ:  cpu time    0.0530: real time    0.0531
     EDDAV:  cpu time   71.4891: real time   72.2015
 BZINTS: Fermi energy:  4.062763;156.000000 electrons
         Band energy:***********;  BLOECHL correction:  0.000000
       DOS:  cpu time    0.0530: real time    0.0527
    CHARGE:  cpu time    1.6817: real time    1.6919
    MIXING:  cpu time    0.0080: real time    0.0079
    --------------------------------------------
      LOOP:  cpu time   73.4888: real time   74.2347

 eigenvalue-minimisations  : 11592
 total energy-change (2. order) : 0.9249467E-03  (-0.6602079E-03)
 number of electron     156.0000001 magnetization 
 augmentation part       -8.9811828 magnetization 

 Broyden mixing:
  rms(total) = 0.11374E-01    rms(broyden)= 0.11369E-01
  rms(prec ) = 0.11734E-01
  weight for this iteration     100.00

 eigenvalues of (default mixing * dielectric matrix)
  average eigenvalue GAMMA=   1.3451
  2.5284  1.6699  1.6699  0.9532  0.6023  0.6466

 Free energy of the ion-electron system (eV)
  ---------------------------------------------------
  alpha Z        PSCENC =       392.04011483
  Ewald energy   TEWEN  =     65539.03796784
  -Hartree energ DENC   =    -79160.58708203
  -exchange      EXHF   =         0.00000000
  -V(xc)+E(xc)   XCENC  =       496.84484080
  PAW double counting   =     11569.84651401   -11454.38072902
  entropy T*S    EENTRO =         0.00000000
  eigenvalues    EBANDS =     -2008.43123854
  atomic energy  EATOM  =     14490.25373403
  Solvation  Ediel_sol  =         0.00000000
  ---------------------------------------------------
  free energy    TOTEN  =      -135.37587810 eV

  energy without entropy =     -135.37587810  energy(sigma->0) =     -135.37587810


--------------------------------------------------------------------------------------------------------




----------------------------------------- Iteration    1(  12)  ---------------------------------------


    POTLOK:  cpu time    0.1990: real time    0.1992
    SETDIJ:  cpu time    0.0520: real time    0.0532
     EDDAV:  cpu time   78.6660: real time   79.2155
 BZINTS: Fermi energy:  4.047362;156.000000 electrons
         Band energy:***********;  BLOECHL correction:  0.000000
       DOS:  cpu time    0.0530: real time    0.0535
    CHARGE:  cpu time    1.6807: real time    1.6934
    MIXING:  cpu time    0.0080: real time    0.0078
    --------------------------------------------
      LOOP:  cpu time   80.6657: real time   81.2498

 eigenvalue-minimisations  : 12712
 total energy-change (2. order) : 0.1930671E-03  (-0.1651722E-03)
 number of electron     156.0000001 magnetization 
 augmentation part       -8.9748089 magnetization 

 Broyden mixing:
  rms(total) = 0.66176E-02    rms(broyden)= 0.66151E-02
  rms(prec ) = 0.68284E-02
  weight for this iteration     100.00

 eigenvalues of (default mixing * dielectric matrix)
  average eigenvalue GAMMA=   1.3454
  2.4541  2.1940  1.6146  1.1204  0.8139  0.6197  0.6008

 Free energy of the ion-electron system (eV)
  ---------------------------------------------------
  alpha Z        PSCENC =       392.04011483
  Ewald energy   TEWEN  =     65539.03796784
  -Hartree energ DENC   =    -79160.94280913
  -exchange      EXHF   =         0.00000000
  -V(xc)+E(xc)   XCENC  =       496.82076095
  PAW double counting   =     11564.66960286   -11449.24561996
  entropy T*S    EENTRO =         0.00000000
  eigenvalues    EBANDS =     -2008.00943645
  atomic energy  EATOM  =     14490.25373403
  Solvation  Ediel_sol  =         0.00000000
  ---------------------------------------------------
  free energy    TOTEN  =      -135.37568503 eV

  energy without entropy =     -135.37568503  energy(sigma->0) =     -135.37568503


--------------------------------------------------------------------------------------------------------




----------------------------------------- Iteration    1(  13)  ---------------------------------------


    POTLOK:  cpu time    0.2010: real time    0.2013
    SETDIJ:  cpu time    0.0530: real time    0.0533
     EDDAV:  cpu time   71.8221: real time   72.6935
 BZINTS: Fermi energy:  4.044332;156.000000 electrons
         Band energy:***********;  BLOECHL correction:  0.000000
       DOS:  cpu time    0.0650: real time    0.0651
    CHARGE:  cpu time    1.6927: real time    1.7060
    MIXING:  cpu time    0.0080: real time    0.0079
[...]

  energy without entropy =       -2.04840605


----------------------------------------- Iteration    3(  22)  ---------------------------------------


   POT+DIJ:  cpu time    0.5049: real time    0.5076
    HAMIL1:  cpu time   10.8144: real time   10.9009
    LRDIAG:  cpu time    2.0657: real time    2.0752
    LRDIIS:  cpu time   39.5030: real time   39.9015
    LRDIAG:  cpu time    2.1037: real time    2.1213
    MIXING:  cpu time    0.0150: real time    0.0156
    --------------------------------------------
      LOOP:  cpu time   58.4411: real time   59.0243

 Broyden mixing:
  rms(total) = 0.29549E-05    rms(broyden)= 0.29541E-05
  rms(prec ) = 0.30816E-05
  weight for this iteration     100.00

 eigenvalues of (default mixing * dielectric matrix)
  average eigenvalue GAMMA=   2.0719
  9.0421  5.4989  4.3217  2.9664  2.9664  2.2264  2.2264  1.7855  1.2861  1.2861
  1.0702  0.9296  0.9296  0.8525  0.8525  0.7447  0.6682  0.5845  0.5944  0.6065

 Free energy of the ion-electron system (eV)
  ---------------------------------------------------
  -Hartree energ DENC   =        -1.31148894
  -V(xc)+E(xc)   XCENC  =         0.02608808
  PAW double counting   =         0.08458897       -0.08467488
  entropy T*S    EENTRO =         0.00000000
  eigenvalues    EBANDS =        -0.76302484
  ---------------------------------------------------
  free energy    TOTEN  =        -2.04851160 eV

  energy without entropy =       -2.04851160


----------------------------------------- Iteration    3(  23)  ---------------------------------------


   POT+DIJ:  cpu time    0.5079: real time    0.5113
    HAMIL1:  cpu time   10.8014: real time   10.8930
    LRDIAG:  cpu time    2.0677: real time    2.0781
    LRDIIS:  cpu time   39.0761: real time   39.5980
    LRDIAG:  cpu time    2.0767: real time    2.0901
    MIXING:  cpu time    0.0160: real time    0.0159
    --------------------------------------------
      LOOP:  cpu time   57.9682: real time   58.6503

 Broyden mixing:
  rms(total) = 0.91480E-06    rms(broyden)= 0.91403E-06
  rms(prec ) = 0.94935E-06
  weight for this iteration     100.00

 eigenvalues of (default mixing * dielectric matrix)
  average eigenvalue GAMMA=   2.0606
  9.0467  5.5040  4.3162  3.3205  2.9431  2.4732  2.1066  1.8458  1.3735  1.3735
  1.2683  0.9310  0.9310  0.9329  0.9329  0.7450  0.7738  0.6682  0.5845  0.5943
  0.6065

 Free energy of the ion-electron system (eV)
  ---------------------------------------------------
  -Hartree energ DENC   =        -1.31148247
  -V(xc)+E(xc)   XCENC  =         0.02608815
  PAW double counting   =         0.08459081       -0.08467675
  entropy T*S    EENTRO =         0.00000000
  eigenvalues    EBANDS =        -0.76312512
  ---------------------------------------------------
  free energy    TOTEN  =        -2.04860537 eV

  energy without entropy =       -2.04860537


------------------------ aborting loop because EDIFF is reached ----------------------------------------


 change of polarisation eV/A/(eV/A) component  3 :    -0.014     0.004     3.991
 dielectric tensor                  component  3 :    -0.006     0.001     2.645


--------------------------------------------------------------------------------------------------------


    FORLOC:  cpu time    0.0290: real time    0.0295
    FORNL :  cpu time   25.3012: real time   25.5474
    STRESS:  cpu time   39.6270: real time   40.0071
    FORCOR:  cpu time    0.2200: real time    0.2208
    OFIELD:  cpu time    0.0020: real time    0.0016

  Hirshfeld charges:
            ion         q(e)     
   ------------------------------
      1     Mo          0.374
      2     Mo          0.372
      3     Mo          0.372
      4     Mo          0.372
      5     Mo          0.372
      6     Mo          0.374
      7     S          -0.186
      8     S          -0.187
      9     S          -0.186
     10     S          -0.186
     11     S          -0.186
     12     S          -0.186
     13     S          -0.186
     14     S          -0.186
     15     S          -0.186
     16     S          -0.186
     17     S          -0.187
     18     S          -0.186

  Tkatchenko/Scheffler method for vdW energy calculation
  ---------------------------------------------------------------------------------------------

  Parameters of vdW forcefield:
            C6ts              R0ts           ALPHAts        RELVOL
            (au)              (au)            (au)                
   ---------------------------------------------------------------
   Mo       1059.768          4.121         89.744          1.015
   Mo       1070.539          4.128         90.199          1.020
   Mo       1070.550          4.128         90.199          1.020
   Mo       1070.550          4.128         90.199          1.020
   Mo       1070.539          4.128         90.199          1.020
   Mo       1059.768          4.121         89.744          1.015
   S         136.635          3.868         19.792          1.010
   S         133.850          3.854         19.589          0.999
   S         136.639          3.868         19.792          1.010
   S         136.633          3.868         19.792          1.010
   S         136.638          3.868         19.792          1.010
   S         136.638          3.868         19.792          1.010
   S         136.638          3.868         19.792          1.010
   S         136.638          3.868         19.792          1.010
   S         136.633          3.868         19.792          1.010
   S         136.638          3.868         19.792          1.010
   S         133.850          3.854         19.589          0.999
   S         136.635          3.868         19.792          1.010
  Edisp (eV):   -5.44528
    FORVDW:  cpu time    6.8620: real time    6.8868
    FORLOC:  cpu time    0.0290: real time    0.0296
    FORNL :  cpu time   25.4641: real time   25.6398
    STRESS:  cpu time   39.5770: real time   39.9256
    FORCOR:  cpu time    0.2200: real time    0.2211
    OFIELD:  cpu time    0.0020: real time    0.0016

  Hirshfeld charges:
            ion         q(e)     
   ------------------------------
      1     Mo          0.374
      2     Mo          0.372
      3     Mo          0.372
      4     Mo          0.372
      5     Mo          0.372
      6     Mo          0.374
      7     S          -0.186
      8     S          -0.187
      9     S          -0.186
     10     S          -0.186
     11     S          -0.186
     12     S          -0.186
     13     S          -0.186
     14     S          -0.186
     15     S          -0.186
     16     S          -0.186
     17     S          -0.187
     18     S          -0.186

  Tkatchenko/Scheffler method for vdW energy calculation
  ---------------------------------------------------------------------------------------------

  Parameters of vdW forcefield:
            C6ts              R0ts           ALPHAts        RELVOL
            (au)              (au)            (au)                
   ---------------------------------------------------------------
   Mo       1059.768          4.121         89.744          1.015
   Mo       1070.539          4.128         90.199          1.020
   Mo       1070.550          4.128         90.199          1.020
   Mo       1070.550          4.128         90.199          1.020
   Mo       1070.539          4.128         90.199          1.020
   Mo       1059.768          4.121         89.744          1.015
   S         136.635          3.868         19.792          1.010
   S         133.850          3.854         19.589          0.999
   S         136.638          3.868         19.792          1.010
   S         136.633          3.868         19.792          1.010
   S         136.638          3.868         19.792          1.010
   S         136.638          3.868         19.792          1.010
   S         136.638          3.868         19.792          1.010
   S         136.638          3.868         19.792          1.010
   S         136.633          3.868         19.792          1.010
   S         136.639          3.868         19.792          1.010
   S         133.850          3.854         19.589          0.999
   S         136.635          3.868         19.792          1.010
  Edisp (eV):   -5.44528
    FORVDW:  cpu time    6.8540: real time    6.8769
    FORNLD:  cpu time   43.3434: real time   43.6840

 PIEZOELECTRIC TENSOR FIELD DIRECTION 3  (e Angst)
 -----------------------------------------------------------------------------
     0.07190  0.00000 -0.00000           ( -0.00000  0.00000 -0.00000)
     0.00000  0.07190 -0.00000           (  0.00000 -0.00000 -0.00000)
     0.00000  0.00000 -0.00303           ( -0.00000 -0.00000  0.00000)

 PIEZOELECTRIC TENSOR FIELD DIRECTION 3  (C/m^2)
 -----------------------------------------------------------------------------
     0.00262  0.00000 -0.00000
     0.00000  0.00262 -0.00000
     0.00000  0.00000 -0.00011


      POSITION         DIRECTION 3           BORN EFFECTIVE CHARGE    (rigid.aug.   ionic)
 -----------------------------------------------------------------------------------------
     -0.00000      0.91916      9.62500     0.00000  0.00000-60.71091 (  0.17436 14.00000)
      1.59203      1.83832     15.77500    -0.00000 -0.00000-22.27030 (  0.17424 14.00000)
     -0.00000      0.91916     21.92500    -0.00000  0.00000 -2.20051 (  0.17423 14.00000)
      1.59203      1.83832     28.07500     0.00000 -0.00000 -2.18690 (  0.17423 14.00000)
     -0.00000      0.91916     34.22500     0.00000 -0.00000-22.24216 (  0.17424 14.00000)
      1.59203      1.83832     40.37500     0.00000  0.00000-60.74054 (  0.17436 14.00000)
      1.59203      1.83832     11.18856     0.00000  0.00000 -5.57415 (  0.66111  6.00000)
      1.59203      1.83832      8.06144     0.00000 -0.00000 -0.95350 (  0.66041  6.00000)
     -0.00000      0.91916     17.33856    -0.00000  0.00000 -1.66067 (  0.66112  6.00000)
     -0.00000      0.91916     14.21144    -0.00000  0.00000  2.04891 (  0.66112  6.00000)
      1.59203      1.83832     23.48856    -0.00000  0.00000  0.22790 (  0.66112  6.00000)
      1.59203      1.83832     20.36144     0.00000 -0.00000  1.28541 (  0.66112  6.00000)
     -0.00000      0.91916     29.63856     0.00000  0.00000  1.09378 (  0.66112  6.00000)
     -0.00000      0.91916     26.51144     0.00000  0.00000  0.16556 (  0.66112  6.00000)
      1.59203      1.83832     35.78856     0.00000 -0.00000  2.57499 (  0.66112  6.00000)
      1.59203      1.83832     32.66144    -0.00000  0.00000 -1.47000 (  0.66112  6.00000)
     -0.00000      0.91916     41.93856     0.00000 -0.00000 -1.07845 (  0.66041  6.00000)
     -0.00000      0.91916     38.81144     0.00000 -0.00000 -5.95113 (  0.66111  6.00000)
 -----------------------------------------------------------------------------------------
    total drift (improves with k-points):   0.00000  0.00000*********




--------------------------------------------------------------------------------------------------------


  LATTYP: Found a hexagonal cell.
 ALAT       =     3.1840664647
 C/A-ratio  =    15.7031897903
  
  Lattice vectors:
  
 A1 = (   3.1840664647,   0.0000000000,   0.0000000000)
 A2 = (  -1.5920332323,   2.7574824458,   0.0000000000)
 A3 = (   0.0000000000,   0.0000000000,  50.0000000000)


Analysis of symmetry for initial positions (statically):
=====================================================================
 Subroutine PRICEL returns:
 Original cell was already a primitive cell.
 

 Routine SETGRP: Setting up the symmetry group for a 
 hexagonal supercell.


 Subroutine GETGRP returns: Found 12 space group operations
 (whereof  4 operations were pure point group operations)
 out of a pool of 24 trial point group operations.


The static configuration has the point symmetry C_2h.
 The point group associated with its full space group is D_3d.


Analysis of symmetry for dynamics (positions and initial velocities):
=====================================================================
 Subroutine PRICEL returns:
 Original cell was already a primitive cell.
 

 Routine SETGRP: Setting up the symmetry group for a 
 hexagonal supercell.


 Subroutine GETGRP returns: Found 12 space group operations
 (whereof  4 operations were pure point group operations)
 out of a pool of 24 trial point group operations.


The dynamic configuration has the point symmetry C_2h.
 The point group associated with its full space group is D_3d.


 Subroutine INISYM returns: Found 12 space group operations
 (whereof  4 operations are pure point group operations),
 and found     1 'primitive' translations



 MACROSCOPIC STATIC DIELECTRIC TENSOR (including local field effects in DFT)
 ------------------------------------------------------
          11.629256    -0.000000    -0.000000
           0.000000    11.629256    -0.000000
          -0.000000     0.000000     2.645089
 ------------------------------------------------------



--------------------------------------------------------------------------------------------------------


  LATTYP: Found a hexagonal cell.
 ALAT       =     3.1840664647
 C/A-ratio  =    15.7031897903
  
  Lattice vectors:
  
 A1 = (   3.1840664647,   0.0000000000,   0.0000000000)
 A2 = (  -1.5920332323,   2.7574824458,   0.0000000000)
 A3 = (   0.0000000000,   0.0000000000,  50.0000000000)


Analysis of symmetry for initial positions (statically):
=====================================================================
 Subroutine PRICEL returns:
 Original cell was already a primitive cell.
 

 Routine SETGRP: Setting up the symmetry group for a 
 hexagonal supercell.


 Subroutine GETGRP returns: Found 12 space group operations
 (whereof  4 operations were pure point group operations)
 out of a pool of 24 trial point group operations.


The static configuration has the point symmetry C_2h.
 The point group associated with its full space group is D_3d.


Analysis of symmetry for dynamics (positions and initial velocities):
=====================================================================
 Subroutine PRICEL returns:
 Original cell was already a primitive cell.
 

 Routine SETGRP: Setting up the symmetry group for a 
 hexagonal supercell.


 Subroutine GETGRP returns: Found 12 space group operations
 (whereof  4 operations were pure point group operations)
 out of a pool of 24 trial point group operations.


The dynamic configuration has the point symmetry C_2h.
 The point group associated with its full space group is D_3d.


 Subroutine INISYM returns: Found 12 space group operations
 (whereof  4 operations are pure point group operations),
 and found     1 'primitive' translations



--------------------------------------------------------------------------------------------------------




 MACROSCOPIC STATIC DIELECTRIC TENSOR (including local field effects in DFT)
 ------------------------------------------------------
          11.629256    -0.000000    -0.000000
           0.000000    11.629256    -0.000000
          -0.000000     0.000000     2.645089
 ------------------------------------------------------


 PIEZOELECTRIC TENSOR  for field in x, y, z        (e  Angst)
          XX          YY          ZZ          XY          YZ          ZX
  --------------------------------------------------------------------------------
  x    -0.01034     0.01258    -0.00202     0.00000     0.00015     0.00000
  y    -0.01386     0.02317    -0.00187     0.00000     0.00011     0.00000
  z     0.07190     0.07190    -0.00303     0.00000     0.00000    -0.00000

 PIEZOELECTRIC TENSOR  for field in x, y, z        (C/m^2)
          XX          YY          ZZ          XY          YZ          ZX
  --------------------------------------------------------------------------------
  x     0.00000     0.00000     0.00000     0.00000     0.00000     0.00000
  y     0.00000     0.00000     0.00000     0.00000     0.00000     0.00000
  z     0.00000     0.00000     0.00000     0.00000     0.00000     0.00000
 
 BORN EFFECTIVE CHARGES (in e, cummulative output)
 -------------------------------------------------
 ion    1
    1    -1.00315    -0.00019     0.00003
    2     0.00000    -1.00379     0.00001
    3     0.00000     0.00000   -60.71091
 ion    2
    1    -0.99439     0.00014     0.00000
    2     0.00000    -0.99369    -0.00000
    3    -0.00000    -0.00000   -22.27030
 ion    3
    1    -0.99413    -0.00014    -0.00000
    2    -0.00000    -0.99483     0.00000
    3    -0.00000     0.00000    -2.20051
 ion    4
    1    -0.99413     0.00014     0.00000
    2    -0.00000    -0.99343     0.00000
    3     0.00000    -0.00000    -2.18690
 ion    5
    1    -0.99439    -0.00014    -0.00000
    2     0.00000    -0.99509     0.00000
    3     0.00000    -0.00000   -22.24216
 ion    6
    1    -1.00315     0.00019    -0.00003
    2    -0.00000    -1.00250    -0.00001
    3     0.00000     0.00000   -60.74054
 ion    7
    1     0.47777    -0.00146     0.00015
    2     0.00000     0.47818     0.00086
    3     0.00000     0.00000    -5.57415
 ion    8
    1     0.50060    -0.00141    -0.00008
    2     0.00000     0.50098    -0.00057
    3     0.00000    -0.00000    -0.95350
 ion    9
    1     0.48481     0.00149     0.00015
    2     0.00000     0.48438     0.00084
    3    -0.00000     0.00000    -1.66067
 ion   10
    1     0.48519     0.00150    -0.00015
    2    -0.00000     0.48474    -0.00082
    3    -0.00000     0.00000     2.04891
 ion   11
    1     0.48477    -0.00149     0.00015
    2     0.00000     0.48521     0.00085
    3    -0.00000     0.00000     0.22790
 ion   12
    1     0.48474    -0.00149    -0.00015
    2    -0.00000     0.48518    -0.00086
    3     0.00000    -0.00000     1.28541
 ion   13
    1     0.48474     0.00149     0.00015
    2     0.00000     0.48431     0.00085
    3     0.00000     0.00000     1.09378
 ion   14
    1     0.48477     0.00149    -0.00015
    2    -0.00000     0.48433    -0.00084
    3     0.00000     0.00000     0.16556
 ion   15
    1     0.48519    -0.00150     0.00015
    2     0.00000     0.48563     0.00083
    3     0.00000    -0.00000     2.57499
 ion   16
    1     0.48481    -0.00149    -0.00015
    2     0.00000     0.48523    -0.00085
    3    -0.00000     0.00000    -1.47000
 ion   17
    1     0.50060     0.00141     0.00008
    2    -0.00000     0.50023     0.00056
    3     0.00000    -0.00000    -1.07845
 ion   18
    1     0.47777     0.00146    -0.00015
    2     0.00000     0.47737    -0.00086
    3     0.00000    -0.00000    -5.95113


--------------------------------------------------------------------------------------------------------


 writing wavefunctions
     LOOP+:  cpu time14219.4593: real time14365.2562
    4ORBIT:  cpu time    0.0000: real time    0.0000
 BZINTS: Fermi energy:  4.133388;156.000000 electrons
         Band energy:***********;  BLOECHL correction:  0.000000

 total amount of memory used by VASP on root node   216865. kBytes
========================================================================

   base      :      30000. kBytes
   nonl-proj :     158854. kBytes
   fftplans  :       2116. kBytes
   grid      :       8000. kBytes
   one-center:       1452. kBytes
   wavefun   :      16443. kBytes
 
  
  
 General timing and accounting informations for this job:
 ========================================================
  
                  Total CPU time used (sec):    14244.533
                            User time (sec):    13983.426
                          System time (sec):      261.107
                         Elapsed time (sec):    14392.207
  
                   Maximum memory used (kb):      667880.
                   Average memory used (kb):           0.
  
                          Minor page faults:     13931476
                          Major page faults:            9
                 Voluntary context switches:        17309
