   9   9   0   0
  0.4877782E+02  0.3184067E-09  0.3184067E-09  0.5000000E-08  0.5000000E-15
  1.000000000000000E-004
  CAR 
 unknown system                          
     10.90849458    -65.64565218  301     -0.51083231      1.00000000
    -65.646  0.0000E+00  0.0000E+00
    -65.390  0.0000E+00  0.0000E+00
    -65.135  0.0000E+00  0.0000E+00
    -64.880  0.0000E+00  0.0000E+00
    -64.625  0.0000E+00  0.0000E+00
    -64.370  0.0000E+00  0.0000E+00
    -64.115  0.0000E+00  0.0000E+00
    -63.859  0.0000E+00  0.0000E+00
    -63.604  0.0000E+00  0.0000E+00
    -63.349  0.0000E+00  0.0000E+00
    -63.094  0.0000E+00  0.0000E+00
    -62.839  0.0000E+00  0.0000E+00
    -62.583  0.0000E+00  0.0000E+00
    -62.328  0.0000E+00  0.0000E+00
    -62.073  0.0000E+00  0.6000E+01
    -61.818  0.0000E+00  0.6000E+01
    -61.563  0.0000E+00  0.6000E+01
    -61.308  0.0000E+00  0.6000E+01
    -61.052  0.0000E+00  0.6000E+01
    -60.797  0.0000E+00  0.6000E+01
    -60.542  0.0000E+00  0.6000E+01
    -60.287  0.0000E+00  0.6000E+01
    -60.032  0.0000E+00  0.6000E+01
    -59.777  0.0000E+00  0.6000E+01
    -59.521  0.0000E+00  0.6000E+01
    -59.266  0.0000E+00  0.6000E+01
    -59.011  0.0000E+00  0.6000E+01
    -58.756  0.0000E+00  0.6000E+01
    -58.501  0.0000E+00  0.6000E+01
    -58.245  0.0000E+00  0.6000E+01
    -57.990  0.0000E+00  0.6000E+01
    -57.735  0.0000E+00  0.6000E+01
    -57.480  0.0000E+00  0.6000E+01
    -57.225  0.0000E+00  0.6000E+01
    -56.970  0.0000E+00  0.6000E+01
    -56.714  0.0000E+00  0.6000E+01
    -56.459  0.0000E+00  0.6000E+01
    -56.204  0.0000E+00  0.6000E+01
    -55.949  0.0000E+00  0.6000E+01
    -55.694  0.0000E+00  0.6000E+01
    -55.438  0.0000E+00  0.6000E+01
    -55.183  0.0000E+00  0.6000E+01
    -54.928  0.0000E+00  0.6000E+01
    -54.673  0.0000E+00  0.6000E+01
    -54.418  0.0000E+00  0.6000E+01
    -54.163  0.0000E+00  0.6000E+01
    -53.907  0.0000E+00  0.6000E+01
    -53.652  0.0000E+00  0.6000E+01
    -53.397  0.0000E+00  0.6000E+01
    -53.142  0.0000E+00  0.6000E+01
    -52.887  0.0000E+00  0.6000E+01
    -52.631  0.0000E+00  0.6000E+01
    -52.376  0.0000E+00  0.6000E+01
    -52.121  0.0000E+00  0.6000E+01
    -51.866  0.0000E+00  0.6000E+01
    -51.611  0.0000E+00  0.6000E+01
    -51.356  0.0000E+00  0.6000E+01
    -51.100  0.0000E+00  0.6000E+01
    -50.845  0.0000E+00  0.6000E+01
    -50.590  0.0000E+00  0.6000E+01
    -50.335  0.0000E+00  0.6000E+01
    -50.080  0.0000E+00  0.6000E+01
    -49.824  0.0000E+00  0.6000E+01
    -49.569  0.0000E+00  0.6000E+01
    -49.314  0.0000E+00  0.6000E+01
    -49.059  0.0000E+00  0.6000E+01
    -48.804  0.0000E+00  0.6000E+01
    -48.549  0.0000E+00  0.6000E+01
    -48.293  0.0000E+00  0.6000E+01
    -48.038  0.0000E+00  0.6000E+01
    -47.783  0.0000E+00  0.6000E+01
    -47.528  0.0000E+00  0.6000E+01
    -47.273  0.0000E+00  0.6000E+01
    -47.017  0.0000E+00  0.6000E+01
    -46.762  0.0000E+00  0.6000E+01
    -46.507  0.0000E+00  0.6000E+01
    -46.252  0.0000E+00  0.6000E+01
    -45.997  0.0000E+00  0.6000E+01
    -45.742  0.0000E+00  0.6000E+01
    -45.486  0.0000E+00  0.6000E+01
    -45.231  0.0000E+00  0.6000E+01
    -44.976  0.0000E+00  0.6000E+01
    -44.721  0.0000E+00  0.6000E+01
    -44.466  0.0000E+00  0.6000E+01
    -44.210  0.0000E+00  0.6000E+01
    -43.955  0.0000E+00  0.6000E+01
    -43.700  0.0000E+00  0.6000E+01
    -43.445  0.0000E+00  0.6000E+01
    -43.190  0.0000E+00  0.6000E+01
    -42.935  0.0000E+00  0.6000E+01
    -42.679  0.0000E+00  0.6000E+01
    -42.424  0.0000E+00  0.6000E+01
    -42.169  0.0000E+00  0.6000E+01
    -41.914  0.0000E+00  0.6000E+01
    -41.659  0.0000E+00  0.6000E+01
    -41.404  0.0000E+00  0.6000E+01
    -41.148  0.0000E+00  0.6000E+01
    -40.893  0.0000E+00  0.6000E+01
    -40.638  0.0000E+00  0.6000E+01
    -40.383  0.0000E+00  0.6000E+01
    -40.128  0.0000E+00  0.6000E+01
    -39.872  0.0000E+00  0.6000E+01
    -39.617  0.0000E+00  0.6000E+01
    -39.362  0.0000E+00  0.6000E+01
    -39.107  0.0000E+00  0.6000E+01
    -38.852  0.0000E+00  0.6000E+01
    -38.597  0.0000E+00  0.6000E+01
    -38.341  0.0000E+00  0.6000E+01
    -38.086  0.0000E+00  0.6000E+01
    -37.831  0.0000E+00  0.6000E+01
    -37.576  0.0000E+00  0.6000E+01
    -37.321  0.0000E+00  0.6000E+01
    -37.065  0.0000E+00  0.6000E+01
    -36.810  0.0000E+00  0.6000E+01
    -36.555  0.0000E+00  0.6000E+01
    -36.300  0.2015E+02  0.1049E+02
    -36.045  0.0000E+00  0.2400E+02
    -35.790  0.0000E+00  0.2400E+02
    -35.534  0.0000E+00  0.2400E+02
    -35.279  0.0000E+00  0.2400E+02
    -35.024  0.0000E+00  0.2400E+02
    -34.769  0.0000E+00  0.2400E+02
    -34.514  0.0000E+00  0.2400E+02
    -34.258  0.0000E+00  0.2400E+02
    -34.003  0.0000E+00  0.2400E+02
    -33.748  0.0000E+00  0.2400E+02
    -33.493  0.0000E+00  0.2400E+02
    -33.238  0.0000E+00  0.2400E+02
    -32.983  0.0000E+00  0.2400E+02
    -32.727  0.0000E+00  0.2400E+02
    -32.472  0.0000E+00  0.2400E+02
    -32.217  0.0000E+00  0.2400E+02
    -31.962  0.0000E+00  0.2400E+02
    -31.707  0.0000E+00  0.2400E+02
    -31.451  0.0000E+00  0.2400E+02
    -31.196  0.0000E+00  0.2400E+02
    -30.941  0.0000E+00  0.2400E+02
    -30.686  0.0000E+00  0.2400E+02
    -30.431  0.0000E+00  0.2400E+02
    -30.176  0.0000E+00  0.2400E+02
    -29.920  0.0000E+00  0.2400E+02
    -29.665  0.0000E+00  0.2400E+02
    -29.410  0.0000E+00  0.2400E+02
    -29.155  0.0000E+00  0.2400E+02
    -28.900  0.0000E+00  0.2400E+02
    -28.644  0.0000E+00  0.2400E+02
    -28.389  0.0000E+00  0.2400E+02
    -28.134  0.0000E+00  0.2400E+02
    -27.879  0.0000E+00  0.2400E+02
    -27.624  0.0000E+00  0.2400E+02
    -27.369  0.0000E+00  0.2400E+02
    -27.113  0.0000E+00  0.2400E+02
    -26.858  0.0000E+00  0.2400E+02
    -26.603  0.0000E+00  0.2400E+02
    -26.348  0.0000E+00  0.2400E+02
    -26.093  0.0000E+00  0.2400E+02
    -25.837  0.0000E+00  0.2400E+02
    -25.582  0.0000E+00  0.2400E+02
    -25.327  0.0000E+00  0.2400E+02
    -25.072  0.0000E+00  0.2400E+02
    -24.817  0.0000E+00  0.2400E+02
    -24.562  0.0000E+00  0.2400E+02
    -24.306  0.0000E+00  0.2400E+02
    -24.051  0.0000E+00  0.2400E+02
    -23.796  0.0000E+00  0.2400E+02
    -23.541  0.0000E+00  0.2400E+02
    -23.286  0.0000E+00  0.2400E+02
    -23.031  0.0000E+00  0.2400E+02
    -22.775  0.0000E+00  0.2400E+02
    -22.520  0.0000E+00  0.2400E+02
    -22.265  0.0000E+00  0.2400E+02
    -22.010  0.0000E+00  0.2400E+02
    -21.755  0.0000E+00  0.2400E+02
    -21.499  0.0000E+00  0.2400E+02
    -21.244  0.0000E+00  0.2400E+02
    -20.989  0.0000E+00  0.2400E+02
    -20.734  0.0000E+00  0.2400E+02
    -20.479  0.0000E+00  0.2400E+02
    -20.224  0.0000E+00  0.2400E+02
    -19.968  0.0000E+00  0.2400E+02
    -19.713  0.0000E+00  0.2400E+02
    -19.458  0.0000E+00  0.2400E+02
    -19.203  0.0000E+00  0.2400E+02
    -18.948  0.0000E+00  0.2400E+02
    -18.692  0.0000E+00  0.2400E+02
    -18.437  0.0000E+00  0.2400E+02
    -18.182  0.0000E+00  0.2400E+02
    -17.927  0.0000E+00  0.2400E+02
    -17.672  0.0000E+00  0.2400E+02
    -17.417  0.0000E+00  0.2400E+02
    -17.161  0.0000E+00  0.2400E+02
    -16.906  0.0000E+00  0.2400E+02
    -16.651  0.0000E+00  0.2400E+02
    -16.396  0.0000E+00  0.2400E+02
    -16.141  0.0000E+00  0.2400E+02
    -15.885  0.0000E+00  0.2400E+02
    -15.630  0.0000E+00  0.2400E+02
    -15.375  0.5627E+00  0.2405E+02
    -15.120  0.1573E+01  0.2438E+02
    -14.865  0.1711E+01  0.2480E+02
    -14.610  0.1882E+01  0.2526E+02
    -14.354  0.2123E+01  0.2576E+02
    -14.099  0.3696E+01  0.2649E+02
    -13.844  0.7330E+01  0.2791E+02
    -13.589  0.1156E+02  0.3019E+02
    -13.334  0.1781E+02  0.3388E+02
    -13.078  0.0000E+00  0.3600E+02
    -12.823  0.0000E+00  0.3600E+02
    -12.568  0.0000E+00  0.3600E+02
    -12.313  0.0000E+00  0.3600E+02
    -12.058  0.0000E+00  0.3600E+02
    -11.803  0.0000E+00  0.3600E+02
    -11.547  0.0000E+00  0.3600E+02
    -11.292  0.0000E+00  0.3600E+02
    -11.037  0.0000E+00  0.3600E+02
    -10.782  0.0000E+00  0.3600E+02
    -10.527  0.0000E+00  0.3600E+02
    -10.271  0.0000E+00  0.3600E+02
    -10.016  0.0000E+00  0.3600E+02
     -9.761  0.0000E+00  0.3600E+02
     -9.506  0.0000E+00  0.3600E+02
     -9.251  0.0000E+00  0.3600E+02
     -8.996  0.0000E+00  0.3600E+02
     -8.740  0.0000E+00  0.3600E+02
     -8.485  0.0000E+00  0.3600E+02
     -8.230  0.0000E+00  0.3600E+02
     -7.975  0.0000E+00  0.3600E+02
     -7.720  0.0000E+00  0.3600E+02
     -7.465  0.0000E+00  0.3600E+02
     -7.209  0.4012E+00  0.3603E+02
     -6.954  0.2764E+01  0.3645E+02
     -6.699  0.6671E+01  0.3768E+02
     -6.444  0.7389E+01  0.4018E+02
     -6.189  0.8603E+01  0.4258E+02
     -5.933  0.3611E+01  0.4445E+02
     -5.678  0.2465E+01  0.4517E+02
     -5.423  0.5176E+01  0.4614E+02
     -5.168  0.9834E+01  0.4815E+02
     -4.913  0.1701E+02  0.5099E+02
     -4.658  0.6331E+01  0.5268E+02
     -4.402  0.1697E+02  0.5511E+02
     -4.147  0.8346E+01  0.5774E+02
     -3.892  0.5914E+01  0.5932E+02
     -3.637  0.5895E+01  0.6064E+02
     -3.382  0.5696E+01  0.6184E+02
     -3.126  0.1119E+02  0.6493E+02
     -2.871  0.6728E+01  0.6747E+02
     -2.616  0.7675E+01  0.6935E+02
     -2.361  0.4708E+01  0.7111E+02
     -2.106  0.1047E+02  0.7223E+02
     -1.851  0.7933E+01  0.7512E+02
     -1.595  0.5308E+01  0.7676E+02
     -1.340  0.1765E+01  0.7762E+02
     -1.085  0.7487E+00  0.7785E+02
     -0.830  0.2633E+00  0.7796E+02
     -0.575  0.0000E+00  0.7800E+02
     -0.319  0.0000E+00  0.7800E+02
     -0.064  0.0000E+00  0.7800E+02
      0.191  0.0000E+00  0.7800E+02
      0.446  0.2695E+01  0.7812E+02
      0.701  0.8186E+01  0.7935E+02
      0.956  0.2742E+02  0.8206E+02
      1.212  0.1217E+02  0.8517E+02
      1.467  0.2146E+02  0.8904E+02
      1.722  0.1185E+02  0.9179E+02
      1.977  0.6504E+01  0.9356E+02
      2.232  0.6396E+01  0.9539E+02
      2.488  0.4649E+01  0.9664E+02
      2.743  0.6380E+01  0.9781E+02
      2.998  0.4815E+01  0.9972E+02
      3.253  0.3687E+01  0.1010E+03
      3.508  0.1931E+01  0.1018E+03
      3.763  0.0000E+00  0.1020E+03
      4.019  0.0000E+00  0.1020E+03
      4.274  0.6987E+00  0.1020E+03
      4.529  0.7042E+00  0.1022E+03
      4.784  0.1406E+01  0.1024E+03
      5.039  0.3032E+01  0.1030E+03
      5.295  0.3784E+01  0.1039E+03
      5.550  0.4389E+01  0.1050E+03
      5.805  0.4732E+01  0.1061E+03
      6.060  0.4703E+01  0.1075E+03
      6.315  0.5477E+01  0.1086E+03
      6.570  0.4685E+01  0.1097E+03
      6.826  0.3778E+01  0.1107E+03
      7.081  0.2521E+01  0.1116E+03
      7.336  0.6738E+00  0.1119E+03
      7.591  0.0000E+00  0.1120E+03
      7.846  0.0000E+00  0.1120E+03
      8.102  0.0000E+00  0.1120E+03
      8.357  0.0000E+00  0.1120E+03
      8.612  0.0000E+00  0.1120E+03
      8.867  0.0000E+00  0.1120E+03
      9.122  0.0000E+00  0.1120E+03
      9.377  0.0000E+00  0.1120E+03
      9.633  0.0000E+00  0.1120E+03
      9.888  0.0000E+00  0.1120E+03
     10.143  0.0000E+00  0.1120E+03
     10.398  0.0000E+00  0.1120E+03
     10.653  0.0000E+00  0.1120E+03
     10.908  0.0000E+00  0.1120E+03
