       N       E                     dE             d eps       ncg     rms          rms(c)
DAV:   1     0.488011885128E+03    0.48801E+03   -0.34357E+04  5180   0.850E+02
DAV:   2    -0.327250826073E+02   -0.52074E+03   -0.51508E+03  6048   0.315E+02
DAV:   3    -0.767406672457E+02   -0.44016E+02   -0.43834E+02  6216   0.960E+01
DAV:   4    -0.785624398080E+02   -0.18218E+01   -0.18200E+01  7504   0.203E+01
DAV:   5    -0.785683076158E+02   -0.58678E-02   -0.58672E-02  5880   0.918E-01    0.183E+01
DAV:   6    -0.702757198178E+02    0.82926E+01   -0.10447E+02  6944   0.392E+01    0.970E+00
DAV:   7    -0.679276472407E+02    0.23481E+01   -0.23851E+01  7308   0.194E+01    0.503E+00
DAV:   8    -0.677940394436E+02    0.13361E+00   -0.29672E+00  6776   0.734E+00    0.163E+00
DAV:   9    -0.677139672178E+02    0.80072E-01   -0.47728E-01  6888   0.326E+00    0.374E-01
DAV:  10    -0.677139700897E+02   -0.28719E-05   -0.27100E-02  5544   0.672E-01    0.157E-01
DAV:  11    -0.677135300841E+02    0.44001E-03   -0.51088E-03  6188   0.288E-01    0.628E-02
DAV:  12    -0.677134098005E+02    0.12028E-03   -0.82788E-04  5656   0.125E-01    0.309E-02
DAV:  13    -0.677133758780E+02    0.33923E-04   -0.15782E-04  6048   0.476E-02    0.141E-02
DAV:  14    -0.677133853928E+02   -0.95148E-05   -0.36557E-05  6132   0.210E-02    0.988E-03
DAV:  15    -0.677134138666E+02   -0.28474E-04   -0.12549E-05  5768   0.158E-02    0.447E-03
DAV:  16    -0.677134603750E+02   -0.46508E-04   -0.11372E-05  5628   0.113E-02    0.357E-03
DAV:  17    -0.677135073051E+02   -0.46930E-04   -0.77155E-06  5740   0.803E-03    0.160E-03
DAV:  18    -0.677135286631E+02   -0.21358E-04   -0.12742E-06  5628   0.306E-03    0.101E-03
DAV:  19    -0.677135449637E+02   -0.16301E-04   -0.53543E-07  5488   0.194E-03    0.556E-04
DAV:  20    -0.677135565466E+02   -0.11583E-04   -0.14415E-07  5460   0.855E-04    0.336E-04
DAV:  21    -0.677135645539E+02   -0.80073E-05   -0.28871E-07  5208   0.875E-04    0.184E-04
DAV:  22    -0.677135673885E+02   -0.28347E-05   -0.38892E-08  5180   0.423E-04    0.940E-05
DAV:  23    -0.677135691330E+02   -0.17445E-05   -0.33914E-08  4620   0.352E-04    0.516E-05
DAV:  24    -0.677135696466E+02   -0.51360E-06   -0.46664E-09  4816   0.173E-04    0.391E-05
DAV:  25    -0.677135702722E+02   -0.62559E-06   -0.10196E-08  4172   0.236E-04    0.240E-05
DAV:  26    -0.677135703933E+02   -0.12117E-06   -0.36227E-10  4816   0.118E-04    0.109E-05
DAV:  27    -0.677135704691E+02   -0.75793E-07   -0.15475E-10  4284   0.854E-05    0.810E-06
DAV:  28    -0.677135704905E+02   -0.21334E-07   -0.15676E-11  4872   0.539E-05    0.555E-06
DAV:  29    -0.677135704965E+02   -0.60536E-08   -0.70906E-12  4452   0.333E-05
   1 F= -.70233481E+02 E0= -.70233481E+02  d E =0.000000E+00
 Linear response reoptimize wavefunctions
DAV:   1    -0.677135704987E+02    0.25199E+01    0.85385E-12  4424   0.247E-05
DAV:   2    -0.677135704986E+02    0.10186E-09    0.18439E-11  4620   0.105E-05
DAV:   3    -0.677135704985E+02    0.43656E-10    0.22686E-11  4368   0.577E-06
 Linear response G [H, r] |phi>, progress :
  Direction:   1
       N       E                     dE             d eps       ncg     rms
RMM:   1    -0.301645218715E+03   -0.30165E+03   -0.13503E+02  5740   0.473E+02
RMM:   2    -0.309911789486E+03   -0.82666E+01   -0.32743E+02  6702   0.623E+01
RMM:   3    -0.318511609966E+03   -0.85998E+01   -0.32831E+01  7067   0.181E+01
RMM:   4    -0.319183149858E+03   -0.67154E+00   -0.18042E+00  8065   0.481E+00
RMM:   5    -0.319217989106E+03   -0.34839E-01   -0.18353E-01  8355   0.159E+00
RMM:   6    -0.319222750579E+03   -0.47615E-02   -0.31661E-02  8826   0.567E-01
RMM:   7    -0.319223257125E+03   -0.50655E-03   -0.43347E-03  9063   0.213E-01
RMM:   8    -0.319223329270E+03   -0.72145E-04   -0.65001E-04  9119   0.846E-02
RMM:   9    -0.319223368178E+03   -0.38908E-04   -0.18220E-04  9466   0.348E-02
RMM:  10    -0.319223367167E+03    0.10113E-05   -0.29331E-05  9880   0.150E-02
RMM:  11    -0.319223372788E+03   -0.56217E-05   -0.57864E-05  9920   0.775E-03
RMM:  12    -0.319223371215E+03    0.15735E-05   -0.37130E-05  9979   0.526E-03
RMM:  13    -0.319223373024E+03   -0.18090E-05   -0.54147E-05  9800   0.448E-03
RMM:  14    -0.319223368695E+03    0.43292E-05   -0.10560E-05  9720   0.422E-03
RMM:  15    -0.319223374072E+03   -0.53777E-05   -0.64253E-05  9689   0.414E-03
 Linear response G [H, r] |phi>, progress :
  Direction:   2
       N       E                     dE             d eps       ncg     rms
RMM:   1    -0.287372319133E+03   -0.28737E+03   -0.67304E+01  5742   0.478E+02
RMM:   2    -0.323684685179E+03   -0.36312E+02   -0.35760E+02  6593   0.645E+01
RMM:   3    -0.333360639774E+03   -0.96760E+01   -0.37377E+01  7082   0.186E+01
RMM:   4    -0.334075402921E+03   -0.71476E+00   -0.18622E+00  7949   0.492E+00
RMM:   5    -0.334119468112E+03   -0.44065E-01   -0.20303E-01  8369   0.161E+00
RMM:   6    -0.334124154368E+03   -0.46863E-02   -0.42915E-02  8869   0.571E-01
RMM:   7    -0.334123773000E+03    0.38137E-03   -0.30692E-03  8956   0.214E-01
RMM:   8    -0.334124078582E+03   -0.30558E-03   -0.14699E-03  9049   0.839E-02
RMM:   9    -0.334124007412E+03    0.71170E-04    0.17202E-04  9421   0.335E-02
RMM:  10    -0.334124028048E+03   -0.20636E-04    0.99945E-05  9836   0.143E-02
RMM:  11    -0.334124032738E+03   -0.46895E-05    0.74872E-05 10052   0.715E-03
RMM:  12    -0.334124032113E+03    0.62543E-06    0.83063E-05 10063   0.476E-03
RMM:  13    -0.334124034234E+03   -0.21218E-05    0.61582E-05  9753   0.401E-03
RMM:  14    -0.334124040272E+03   -0.60373E-05    0.99286E-07  9835   0.377E-03
RMM:  15    -0.334124040920E+03   -0.64788E-06   -0.56220E-06  9750   0.369E-03
 Linear response G [H, r] |phi>, progress :
  Direction:   3
       N       E                     dE             d eps       ncg     rms
RMM:   1    -0.290812608127E+03   -0.29081E+03    0.16845E+02  6287   0.474E+02
RMM:   2    -0.318441128807E+03   -0.27629E+02   -0.29408E+02  6692   0.603E+01
RMM:   3    -0.325627005715E+03   -0.71859E+01   -0.26885E+01  6932   0.178E+01
RMM:   4    -0.326179295420E+03   -0.55229E+00   -0.19166E+00  8141   0.487E+00
RMM:   5    -0.326216613074E+03   -0.37318E-01   -0.25027E-01  8595   0.156E+00
RMM:   6    -0.326220326795E+03   -0.37137E-02   -0.41470E-02  8673   0.541E-01
RMM:   7    -0.326220909194E+03   -0.58240E-03   -0.62520E-03  8764   0.201E-01
RMM:   8    -0.326221030841E+03   -0.12165E-03   -0.85980E-04  8870   0.774E-02
RMM:   9    -0.326221067368E+03   -0.36527E-04   -0.92870E-05  9192   0.303E-02
RMM:  10    -0.326221078172E+03   -0.10804E-04    0.28051E-05  9570   0.129E-02
RMM:  11    -0.326221081062E+03   -0.28900E-05    0.37260E-05  9984   0.648E-03
RMM:  12    -0.326221082559E+03   -0.14968E-05    0.29268E-05  9965   0.454E-03
RMM:  13    -0.326221083554E+03   -0.99528E-06    0.20168E-05  9730   0.397E-03
RMM:  14    -0.326221084571E+03   -0.10166E-05    0.10082E-05  9492   0.385E-03
RMM:  15    -0.326221084808E+03   -0.23727E-06    0.76755E-06  9374   0.380E-03
 Linear response to external field (no local field effect), progress :
  Direction:   1
       N       E                     dE             d eps       ncg     rms          rms(c)
RMM:   1    -0.546266845192E+01   -0.54627E+01   -0.36267E+01  9652   0.829E+00
RMM:   2    -0.679957525792E+01   -0.13369E+01    0.52351E-02  5916   0.219E+00
RMM:   3    -0.685931806945E+01   -0.59743E-01   -0.73613E-02  7382   0.592E-01
RMM:   4    -0.686180139497E+01   -0.24833E-02   -0.51519E-03  7460   0.172E-01
RMM:   5    -0.686195900348E+01   -0.15761E-03   -0.61452E-04  8204   0.622E-02
RMM:   6    -0.686198392877E+01   -0.24925E-04   -0.95463E-05  8394   0.232E-02
RMM:   7    -0.686198760247E+01   -0.36737E-05   -0.16656E-05  8303   0.895E-03
RMM:   8    -0.686198817498E+01   -0.57251E-06   -0.29572E-06  8217   0.353E-03
RMM:   9    -0.686198825777E+01   -0.82793E-07   -0.53625E-07  7797   0.143E-03
RMM:  10    -0.686198827145E+01   -0.13676E-07   -0.92458E-08  7465   0.587E-04
RMM:  11    -0.686198827472E+01   -0.32724E-08   -0.25427E-08  7195   0.258E-04
 Linear response to external field (no local field effect), progress :
  Direction:   2
       N       E                     dE             d eps       ncg     rms          rms(c)
RMM:   1    -0.557594958671E+01   -0.55759E+01   -0.36358E+01  9603   0.838E+00
RMM:   2    -0.669210622451E+01   -0.11162E+01    0.21126E-01  5854   0.220E+00
RMM:   3    -0.676232943910E+01   -0.70223E-01   -0.68768E-02  7301   0.602E-01
RMM:   4    -0.676517477989E+01   -0.28453E-02   -0.56271E-03  7427   0.177E-01
RMM:   5    -0.676534016805E+01   -0.16539E-03   -0.53414E-04  7931   0.643E-02
RMM:   6    -0.676536881111E+01   -0.28643E-04   -0.10174E-04  8275   0.239E-02
RMM:   7    -0.676537206861E+01   -0.32575E-05   -0.14516E-05  8168   0.911E-03
RMM:   8    -0.676537259109E+01   -0.52248E-06   -0.25967E-06  8070   0.357E-03
RMM:   9    -0.676537266319E+01   -0.72096E-07   -0.49522E-07  7767   0.143E-03
RMM:  10    -0.676537267576E+01   -0.12575E-07   -0.99314E-08  7439   0.593E-04
RMM:  11    -0.676537267751E+01   -0.17462E-08   -0.28450E-08  6805   0.261E-04
 Linear response to external field (no local field effect), progress :
  Direction:   3
       N       E                     dE             d eps       ncg     rms          rms(c)
RMM:   1    -0.331736547534E+01   -0.33174E+01   -0.17369E+01  9638   0.762E+00
RMM:   2    -0.372872742628E+01   -0.41136E+00    0.18931E-03  5716   0.183E+00
RMM:   3    -0.375235258720E+01   -0.23625E-01   -0.32213E-02  7391   0.483E-01
RMM:   4    -0.375348523822E+01   -0.11327E-02   -0.25581E-03  7500   0.140E-01
RMM:   5    -0.375354517254E+01   -0.59934E-04   -0.28431E-04  8042   0.515E-02
RMM:   6    -0.375355639283E+01   -0.11220E-04   -0.50927E-05  8147   0.191E-02
RMM:   7    -0.375355738936E+01   -0.99653E-06   -0.77806E-06  7937   0.738E-03
RMM:   8    -0.375355755176E+01   -0.16241E-06   -0.14725E-06  7596   0.291E-03
RMM:   9    -0.375355756353E+01   -0.11762E-07   -0.23376E-07  7318   0.118E-03
RMM:  10    -0.375355756856E+01   -0.50375E-08   -0.65468E-08  7303   0.503E-04
 Linear response to external field, progress :
  Direction:   1
       N       E                     dE             d eps       ncg     rms          rms(c)
RMM:   1    -0.553673955127E+01   -0.55367E+01   -0.36487E+01 42850   0.828E+00
RMM:   2    -0.674763246908E+01   -0.12109E+01    0.11412E-01 26229   0.216E+00    0.559E+00
RMM:   3    -0.652932622971E+01    0.21831E+00   -0.27570E-01 30067   0.253E+00    0.294E+00
RMM:   4    -0.668408533536E+01   -0.15476E+00   -0.16738E-01 30686   0.238E+00    0.516E-01
RMM:   5    -0.674155705264E+01   -0.57472E-01   -0.23626E-02 32489   0.682E-01    0.103E-01
RMM:   6    -0.674950848834E+01   -0.79514E-02   -0.16290E-03 32283   0.167E-01    0.419E-02
RMM:   7    -0.675040165736E+01   -0.89317E-03   -0.19308E-04 33381   0.618E-02    0.112E-02
RMM:   8    -0.675059751277E+01   -0.19586E-03   -0.40976E-05 36257   0.186E-02    0.688E-03
RMM:   9    -0.675075103629E+01   -0.15352E-03    0.78871E-06 34929   0.809E-03    0.339E-03
RMM:  10    -0.675090354623E+01   -0.15251E-03   -0.53341E-06 33471   0.404E-03    0.735E-04
RMM:  11    -0.675093005268E+01   -0.26506E-04   -0.10383E-07 36870   0.152E-03    0.360E-04
RMM:  12    -0.675094222750E+01   -0.12175E-04   -0.12243E-07 36764   0.545E-04    0.180E-04
RMM:  13    -0.675094140029E+01    0.82721E-06    0.30405E-07 33561   0.277E-04    0.510E-05
RMM:  14    -0.675094156915E+01   -0.16886E-06    0.41598E-07 37444   0.115E-04    0.227E-05
RMM:  15    -0.675094218587E+01   -0.61672E-06    0.33246E-07 24070   0.623E-05    0.113E-05
RMM:  16    -0.675094238289E+01   -0.19702E-06    0.38550E-07 18819   0.550E-05    0.358E-06
 Linear response to external field, progress :
  Direction:   2
       N       E                     dE             d eps       ncg     rms          rms(c)
RMM:   1    -0.554466258613E+01   -0.55447E+01   -0.36566E+01 23686   0.828E+00
RMM:   2    -0.675012821682E+01   -0.12055E+01    0.88980E-02 14639   0.215E+00    0.559E+00
RMM:   3    -0.652945294441E+01    0.22068E+00   -0.27642E-01 16621   0.253E+00    0.294E+00
RMM:   4    -0.668298770881E+01   -0.15353E+00   -0.15728E-01 16952   0.237E+00    0.515E-01
RMM:   5    -0.674139408105E+01   -0.58406E-01   -0.17574E-02 17946   0.678E-01    0.102E-01
RMM:   6    -0.674887128976E+01   -0.74772E-02   -0.16573E-03 18067   0.165E-01    0.474E-02
RMM:   7    -0.675034752510E+01   -0.14762E-02    0.11470E-05 18126   0.663E-02    0.238E-02
RMM:   8    -0.675051446905E+01   -0.16694E-03   -0.72973E-05 19348   0.255E-02    0.699E-03
RMM:   9    -0.675072896082E+01   -0.21449E-03   -0.48035E-06 19140   0.968E-03    0.341E-03
RMM:  10    -0.675088226679E+01   -0.15331E-03    0.85680E-07 19314   0.372E-03    0.835E-04
RMM:  11    -0.675090711490E+01   -0.24848E-04   -0.10667E-06 21117   0.139E-03    0.431E-04
RMM:  12    -0.675092296165E+01   -0.15847E-04   -0.32129E-07 19389   0.553E-04    0.137E-04
RMM:  13    -0.675092386489E+01   -0.90324E-06    0.87523E-07 21502   0.219E-04    0.575E-05
RMM:  14    -0.675092390929E+01   -0.44394E-07   -0.45222E-07 19485   0.106E-04    0.283E-05
RMM:  15    -0.675092439374E+01   -0.48445E-06   -0.20078E-07 13704   0.632E-05    0.105E-05
RMM:  16    -0.675092464026E+01   -0.24652E-06   -0.19414E-07 11144   0.569E-05    0.395E-06
 Linear response to external field, progress :
  Direction:   3
       N       E                     dE             d eps       ncg     rms          rms(c)
RMM:   1    -0.331736547534E+01   -0.33174E+01   -0.17369E+01  9638   0.762E+00
RMM:   2    -0.372872742628E+01   -0.41136E+00    0.18931E-03  5716   0.183E+00    0.468E+00
RMM:   3     0.196296731213E+01    0.56917E+01    0.24352E+01  6534   0.492E+00    0.277E+00
RMM:   4    -0.185081540682E+00   -0.21480E+01    0.50758E+00  6337   0.170E+00    0.974E-01
RMM:   5    -0.247551611521E+00   -0.62470E-01    0.34143E+00  6548   0.103E+00    0.366E-01
RMM:   6    -0.539590733499E+00   -0.29204E+00    0.37718E-01  7094   0.434E-01    0.255E-01
RMM:   7    -0.542674592165E+00   -0.30839E-02    0.20715E-01  7097   0.213E-01    0.172E-01
RMM:   8    -0.493334842860E+00    0.49340E-01    0.62802E-01  6781   0.180E-01    0.695E-02
RMM:   9    -0.545653403060E+00   -0.52319E-01    0.92820E-02  7373   0.906E-02    0.380E-02
RMM:  10    -0.536223037466E+00    0.94304E-02    0.17853E-01  6692   0.509E-02    0.167E-02
RMM:  11    -0.558321185170E+00   -0.22098E-01   -0.40677E-02  6879   0.240E-02    0.117E-02
RMM:  12    -0.551885331543E+00    0.64359E-02    0.25501E-02  6657   0.242E-02    0.553E-03
RMM:  13    -0.547995177041E+00    0.38902E-02    0.67085E-02  6848   0.156E-02    0.428E-03
RMM:  14    -0.553649302502E+00   -0.56541E-02    0.11979E-02  6727   0.894E-03    0.199E-03
RMM:  15    -0.552898145539E+00    0.75116E-03    0.19554E-02  6998   0.409E-03    0.125E-03
RMM:  16    -0.554675569322E+00   -0.17774E-02    0.18015E-03  6833   0.321E-03    0.815E-04
RMM:  17    -0.554949038601E+00   -0.27347E-03   -0.92655E-04  6769   0.329E-03    0.410E-04
RMM:  18    -0.555104285571E+00   -0.15525E-03   -0.25628E-03  7048   0.164E-03    0.218E-04
RMM:  19    -0.554997247565E+00    0.10704E-03   -0.15411E-03  7155   0.151E-03    0.146E-04
RMM:  20    -0.554886329007E+00    0.11092E-03   -0.44306E-04  7168   0.549E-04    0.845E-05
RMM:  21    -0.554854742130E+00    0.31587E-04   -0.14939E-04  6754   0.550E-04    0.488E-05
RMM:  22    -0.554867393906E+00   -0.12652E-04   -0.28364E-04  6160   0.218E-04    0.234E-05
RMM:  23    -0.554818983878E+00    0.48410E-04    0.19915E-04  5974   0.977E-05    0.183E-05
RMM:  24    -0.554787216874E+00    0.31767E-04    0.51760E-04  5640   0.827E-05    0.111E-05
RMM:  25    -0.554790172414E+00   -0.29555E-05    0.49032E-04  5596   0.797E-05    0.121E-05
RMM:  26    -0.554765100570E+00    0.25072E-04    0.73948E-04  4343   0.436E-05    0.360E-06
