 vasp.5.4.1 24Jun15 (build Apr 13 2016 13:07:19) complex                        
  
 executed on           IFC91_ompi date 2019.09.13  17:29:59
 running on   28 total cores
 distrk:  each k-point on   28 cores,    1 groups
 distr:  one band on NCORES_PER_BAND=   1 cores,   28 groups


--------------------------------------------------------------------------------------------------------


 INCAR:
 POTCAR:    PAW_PBE Mo_sv_GW 05Dec2013            
 POTCAR:    PAW_PBE S_GW 19Mar2012                

 ----------------------------------------------------------------------------- 
|                                                                             |
|           W    W    AA    RRRRR   N    N  II  N    N   GGGG   !!!           |
|           W    W   A  A   R    R  NN   N  II  NN   N  G    G  !!!           |
|           W    W  A    A  R    R  N N  N  II  N N  N  G       !!!           |
|           W WW W  AAAAAA  RRRRR   N  N N  II  N  N N  G  GGG   !            |
|           WW  WW  A    A  R   R   N   NN  II  N   NN  G    G                |
|           W    W  A    A  R    R  N    N  II  N    N   GGGG   !!!           |
|                                                                             |
|      For optimal performance we recommend to set                            |
|        NCORE= 4 - approx SQRT( number of cores)                             |
|      NCORE specifies how many cores store one orbital (NPAR=cpu/NCORE).     |
|      This setting can  greatly improve the performance of VASP for DFT.     |
|      The default, NPAR=number of cores might be grossly inefficient         |
|      on modern multi-core architectures or massively parallel machines.     |
|      Do your own testing !!!!                                               |
|      Unfortunately you need to use the default for GW and RPA calculations. |
|      (for HF NCORE is supported but not extensively tested yet)             |
|                                                                             |
 ----------------------------------------------------------------------------- 

 POTCAR:    PAW_PBE Mo_sv_GW 05Dec2013            
   VRHFIN =Mo: 4s4p5s4d                                                         
   LEXCH  = PE                                                                  
   EATOM  =  1861.5185 eV,  136.8178 Ry                                         
                                                                                
   TITEL  = PAW_PBE Mo_sv_GW 05Dec2013                                          
   LULTRA =        F    use ultrasoft PP ?                                      
   IUNSCR =        1    unscreen: 0-lin 1-nonlin 2-no                           
   RPACOR =    2.000    partial core radius                                     
   POMASS =   95.940; ZVAL   =   14.000    mass and valenz                      
   RCORE  =    2.100    outmost cutoff radius                                   
   RWIGS  =    2.100; RWIGS  =    1.111    wigner-seitz radius (au A)           
   ENMAX  =  344.914; ENMIN  =  258.686 eV                                      
   RCLOC  =    1.508    cutoff for local pot                                    
   LCOR   =        T    correct aug charges                                     
   LPAW   =        T    paw PP                                                  
   EAUG   =  964.741                                                            
   DEXC   =    0.000                                                            
   RMAX   =    2.149    core radius for proj-oper                               
   RAUG   =    1.300    factor for augmentation sphere                          
   RDEP   =    2.179    radius for radial grids                                 
   RDEPT  =    1.677    core radius for aug-charge                              
                                                                                
   Atomic configuration                                                         
   12 entries                                                                   
     n  l   j            E        occ.                                          
     1  0  0.50    -19816.9363   2.0000                                         
     2  0  0.50     -2796.7578   2.0000                                         
     2  1  1.50     -2499.7842   6.0000                                         
     3  0  0.50      -474.2095   2.0000                                         
     3  1  1.50      -376.9135   6.0000                                         
     3  2  2.50      -218.6898  10.0000                                         
     4  0  0.50       -62.1983   2.0000                                         
     4  0  0.50       -66.6685   0.0000                                         
     4  1  1.50       -36.4414   6.0000                                         
     4  1  1.50       -40.8175   0.0000                                         
     4  2  2.50        -2.3086   6.0000                                         
     4  3  2.50        -1.3606   0.0000                                         
   Description                                                                  
     l       E           TYP  RCUT    TYP  RCUT                                 
     0    -62.1983072     23  1.950                                             
     0     27.2116520     23  1.950                                             
     0    149.6640860     23  1.950                                             
     1    -36.4413666     23  1.800                                             
     1    -40.8174780     23  1.800                                             
     1     54.4233040     23  1.800                                             
     2     -2.3085597     23  2.000                                             
     2     -6.8029130     23  2.000                                             
     2    136.0582600     23  2.000                                             
     3     13.6058260     23  2.100                                             
     3     81.6349560     23  2.100                                             
  local pseudopotential read in
  partial core-charges read in
  partial kinetic energy density read in
  kinetic energy density of atom read in
  atomic valenz-charges read in
  non local Contribution for L=           0  read in
    real space projection operators read in
  non local Contribution for L=           0  read in
    real space projection operators read in
  non local Contribution for L=           0  read in
    real space projection operators read in
  non local Contribution for L=           1  read in
    real space projection operators read in
  non local Contribution for L=           1  read in
    real space projection operators read in
  non local Contribution for L=           1  read in
    real space projection operators read in
  non local Contribution for L=           2  read in
    real space projection operators read in
  non local Contribution for L=           2  read in
    real space projection operators read in
  non local Contribution for L=           2  read in
    real space projection operators read in
  non local Contribution for L=           3  read in
    real space projection operators read in
  non local Contribution for L=           3  read in
    real space projection operators read in
    PAW grid and wavefunctions read in
 
   number of l-projection  operators is LMAX  =          11
   number of lm-projection operators is LMMAX =          41
 
 POTCAR:    PAW_PBE S_GW 19Mar2012                
   VRHFIN =S : s2p4                                                             
   LEXCH  = PE                                                                  
   EATOM  =   276.8230 eV,   20.3459 Ry                                         
                                                                                
   TITEL  = PAW_PBE S_GW 19Mar2012                                              
   LULTRA =        F    use ultrasoft PP ?                                      
   IUNSCR =        1    unscreen: 0-lin 1-nonlin 2-no                           
   RPACOR =    1.400    partial core radius                                     
   POMASS =   32.066; ZVAL   =    6.000    mass and valenz                      
   RCORE  =    1.900    outmost cutoff radius                                   
   RWIGS  =    1.900; RWIGS  =    1.005    wigner-seitz radius (au A)           
   ENMAX  =  258.689; ENMIN  =  194.016 eV                                      
   ICORE  =        3    local potential                                         
   LCOR   =        T    correct aug charges                                     
   LPAW   =        T    paw PP                                                  
   EAUG   =  488.319                                                            
   DEXC   =    0.000                                                            
   RMAX   =    1.942    core radius for proj-oper                               
   RAUG   =    1.300    factor for augmentation sphere                          
   RDEP   =    1.954    radius for radial grids                                 
   RDEPT  =    1.900    core radius for aug-charge                              
                                                                                
   Atomic configuration                                                         
    7 entries                                                                   
     n  l   j            E        occ.                                          
     1  0  0.50     -2405.8406   2.0000                                         
     2  0  0.50      -211.7007   2.0000                                         
     2  1  1.50      -156.4958   6.0000                                         
     3  0  0.50       -17.2562   2.0000                                         
     3  1  0.50        -7.0085   4.0000                                         
     3  2  1.50        -8.1635   0.0000                                         
     4  3  2.50        -1.3606   0.0000                                         
   Description                                                                  
     l       E           TYP  RCUT    TYP  RCUT                                 
     0    -17.2561639     23  1.700                                             
     0     88.4378690     23  1.900                                             
     1     -7.0085399     23  1.900                                             
     1     88.4378690     23  1.900                                             
     2    -10.8846608     23  1.900                                             
     2     54.4233040     23  1.900                                             
     3     27.2116520     23  1.800                                             
  local pseudopotential read in
  partial core-charges read in
  partial kinetic energy density read in
  kinetic energy density of atom read in
  atomic valenz-charges read in
  non local Contribution for L=           0  read in
    real space projection operators read in
  non local Contribution for L=           0  read in
    real space projection operators read in
  non local Contribution for L=           1  read in
    real space projection operators read in
  non local Contribution for L=           1  read in
    real space projection operators read in
  non local Contribution for L=           2  read in
    real space projection operators read in
  non local Contribution for L=           2  read in
    real space projection operators read in
    PAW grid and wavefunctions read in
 
   number of l-projection  operators is LMAX  =           6
   number of lm-projection operators is LMMAX =          18
 
  PAW_PBE Mo_sv_GW 05Dec2013            :
 energy of atom  1       EATOM=-1861.5185
 kinetic energy error for atom=    0.1105 (will be added to EATOM!!)
  PAW_PBE S_GW 19Mar2012                :
 energy of atom  2       EATOM= -276.8230
 kinetic energy error for atom=    0.0058 (will be added to EATOM!!)
 
 
 POSCAR: Mo  S                                   
  positions in cartesian coordinates
  No initial velocities read in
 exchange correlation table for  LEXCH =        8
   RHO(1)=    0.500       N(1)  =     2000
   RHO(2)=  100.500       N(2)  =     4000
 


--------------------------------------------------------------------------------------------------------


 ion  position               nearest neighbor table
   1  0.167  0.333  0.377-   4 2.41   5 2.41   4 2.41   5 2.41   4 2.41   5 2.41
   2  0.833  0.667  0.500-   6 2.41   7 2.41   6 2.41   7 2.41   6 2.41   7 2.41
   3  0.167  0.333  0.623-   8 2.41   9 2.41   8 2.41   9 2.41   8 2.41   9 2.41
   4  0.833  0.667  0.408-   1 2.41   1 2.41   1 2.41
   5  0.833  0.667  0.346-   1 2.41   1 2.41   1 2.41
   6  0.167  0.333  0.531-   2 2.41   2 2.41   2 2.41
   7  0.167  0.333  0.469-   2 2.41   2 2.41   2 2.41
   8  0.833  0.667  0.654-   3 2.41   3 2.41   3 2.41
   9  0.833  0.667  0.592-   3 2.41   3 2.41   3 2.41
 
  LATTYP: Found a hexagonal cell.
 ALAT       =     3.1840664647
 C/A-ratio  =    15.7031897903
  
  Lattice vectors:
  
 A1 = (   3.1840664647,   0.0000000000,   0.0000000000)
 A2 = (  -1.5920332323,   2.7574824458,   0.0000000000)
 A3 = (   0.0000000000,   0.0000000000,  50.0000000000)


Analysis of symmetry for initial positions (statically):
=====================================================================
 Subroutine PRICEL returns:
 Original cell was already a primitive cell.
 

 Routine SETGRP: Setting up the symmetry group for a 
 hexagonal supercell.


 Subroutine GETGRP returns: Found 12 space group operations
 (whereof  4 operations were pure point group operations)
 out of a pool of 24 trial point group operations.


The static configuration has the point symmetry C_2v.
 The point group associated with its full space group is D_3h.


Analysis of symmetry for dynamics (positions and initial velocities):
=====================================================================
 Subroutine PRICEL returns:
 Original cell was already a primitive cell.
 

 Routine SETGRP: Setting up the symmetry group for a 
 hexagonal supercell.


 Subroutine GETGRP returns: Found 12 space group operations
 (whereof  4 operations were pure point group operations)
 out of a pool of 24 trial point group operations.


The dynamic configuration has the point symmetry C_2v.
 The point group associated with its full space group is D_3h.


 Subroutine INISYM returns: Found 12 space group operations
 (whereof  4 operations are pure point group operations),
 and found     1 'primitive' translations

 
 
 KPOINTS: KPOINTS created by Atomic Simulation Env

Automatic generation of k-mesh.
Space group operators:
 irot       det(A)        alpha          n_x          n_y          n_z        tau_x        tau_y        tau_z
    1     1.000000     0.000000     1.000000     0.000000     0.000000     0.000000     0.000000     0.000000
    2    -1.000000   180.000000     0.000000     0.000000     1.000000     0.000000     0.000000     0.000000
    3    -1.000000   180.000000     1.000000     0.000000     0.000000     0.000000     0.000000     0.000000
    4     1.000000   180.000000     0.000000     1.000000     0.000000     0.000000     0.000000     0.000000
    5    -1.000000    60.000000     0.000000     0.000000    -1.000000     0.000000     0.500000     0.000000
    6     1.000000   120.000000     0.000000     0.000000    -1.000000     0.500000     0.500000     0.000000
    7     1.000000   120.000000     0.000000     0.000000     1.000000     0.000000     0.500000     0.000000
    8    -1.000000    60.000000     0.000000     0.000000     1.000000     0.500000     0.500000     0.000000
    9     1.000000   180.000000     0.866025    -0.500000     0.000000     0.500000     0.500000     0.000000
   10    -1.000000   180.000000     0.500000    -0.866025     0.000000     0.000000     0.500000     0.000000
   11    -1.000000   180.000000    -0.500000    -0.866025     0.000000     0.500000     0.500000     0.000000
   12     1.000000   180.000000     0.866025     0.500000     0.000000     0.000000     0.500000     0.000000
 
 Subroutine IBZKPT returns following result:
 ===========================================
 
 Found     37 irreducible k-points:
 
 Following reciprocal coordinates:
            Coordinates               Weight
  0.000000  0.000000  0.000000      1.000000
  0.055556  0.000000  0.000000      6.000000
  0.111111  0.000000  0.000000      6.000000
  0.166667  0.000000  0.000000      6.000000
  0.222222  0.000000  0.000000      6.000000
  0.277778  0.000000  0.000000      6.000000
  0.333333  0.000000  0.000000      6.000000
  0.388889  0.000000  0.000000      6.000000
  0.444444  0.000000  0.000000      6.000000
  0.500000  0.000000  0.000000      3.000000
  0.055556  0.055556  0.000000      6.000000
  0.111111  0.055556  0.000000     12.000000
  0.166667  0.055556  0.000000     12.000000
  0.222222  0.055556  0.000000     12.000000
  0.277778  0.055556  0.000000     12.000000
  0.333333  0.055556  0.000000     12.000000
  0.388889  0.055556  0.000000     12.000000
  0.444444  0.055556  0.000000     12.000000
  0.111111  0.111111  0.000000      6.000000
  0.166667  0.111111  0.000000     12.000000
  0.222222  0.111111  0.000000     12.000000
  0.277778  0.111111  0.000000     12.000000
  0.333333  0.111111  0.000000     12.000000
  0.388889  0.111111  0.000000     12.000000
  0.444444  0.111111  0.000000      6.000000
  0.166667  0.166667  0.000000      6.000000
  0.222222  0.166667  0.000000     12.000000
  0.277778  0.166667  0.000000     12.000000
  0.333333  0.166667  0.000000     12.000000
  0.388889  0.166667  0.000000     12.000000
  0.222222  0.222222  0.000000      6.000000
  0.277778  0.222222  0.000000     12.000000
  0.333333  0.222222  0.000000     12.000000
  0.388889  0.222222  0.000000      6.000000
  0.277778  0.277778  0.000000      6.000000
  0.333333  0.277778  0.000000     12.000000
  0.333333  0.333333  0.000000      2.000000
 
 Following cartesian coordinates:
            Coordinates               Weight
  0.000000  0.000000  0.000000      1.000000
  0.017448  0.010074  0.000000      6.000000
  0.034896  0.020147  0.000000      6.000000
  0.052344  0.030221  0.000000      6.000000
  0.069792  0.040294  0.000000      6.000000
  0.087240  0.050368  0.000000      6.000000
  0.104688  0.060442  0.000000      6.000000
  0.122136  0.070515  0.000000      6.000000
  0.139584  0.080589  0.000000      6.000000
  0.157032  0.090662  0.000000      3.000000
  0.017448  0.030221  0.000000      6.000000
  0.034896  0.040294  0.000000     12.000000
  0.052344  0.050368  0.000000     12.000000
  0.069792  0.060442  0.000000     12.000000
  0.087240  0.070515  0.000000     12.000000
  0.104688  0.080589  0.000000     12.000000
  0.122136  0.090662  0.000000     12.000000
  0.139584  0.100736  0.000000     12.000000
  0.034896  0.060442  0.000000      6.000000
  0.052344  0.070515  0.000000     12.000000
  0.069792  0.080589  0.000000     12.000000
  0.087240  0.090662  0.000000     12.000000
  0.104688  0.100736  0.000000     12.000000
  0.122136  0.110810  0.000000     12.000000
  0.139584  0.120883  0.000000      6.000000
  0.052344  0.090662  0.000000      6.000000
  0.069792  0.100736  0.000000     12.000000
  0.087240  0.110810  0.000000     12.000000
  0.104688  0.120883  0.000000     12.000000
  0.122136  0.130957  0.000000     12.000000
  0.069792  0.120883  0.000000      6.000000
  0.087240  0.130957  0.000000     12.000000
  0.104688  0.141030  0.000000     12.000000
  0.122136  0.151104  0.000000      6.000000
  0.087240  0.151104  0.000000      6.000000
  0.104688  0.161178  0.000000     12.000000
  0.104688  0.181325  0.000000      2.000000
 
 TETIRR: Found    169 inequivalent tetrahedra from     1944
 
 Subroutine IBZKPT_HF returns following result:
 ==============================================
 
 Found    324 k-points in 1st BZ
 the following    324 k-points will be used (e.g. in the exchange kernel)
 Following reciprocal coordinates:   # in IRBZ
  0.000000  0.000000  0.000000    0.00308642   1 t-inv F
  0.055556  0.000000  0.000000    0.00308642   2 t-inv F
  0.111111  0.000000  0.000000    0.00308642   3 t-inv F
  0.166667  0.000000  0.000000    0.00308642   4 t-inv F
  0.222222  0.000000  0.000000    0.00308642   5 t-inv F
  0.277778  0.000000  0.000000    0.00308642   6 t-inv F
  0.333333  0.000000  0.000000    0.00308642   7 t-inv F
  0.388889  0.000000  0.000000    0.00308642   8 t-inv F
  0.444444  0.000000  0.000000    0.00308642   9 t-inv F
  0.500000  0.000000  0.000000    0.00308642  10 t-inv F
  0.055556  0.055556  0.000000    0.00308642  11 t-inv F
  0.111111  0.055556  0.000000    0.00308642  12 t-inv F
  0.166667  0.055556  0.000000    0.00308642  13 t-inv F
  0.222222  0.055556  0.000000    0.00308642  14 t-inv F
  0.277778  0.055556  0.000000    0.00308642  15 t-inv F
  0.333333  0.055556  0.000000    0.00308642  16 t-inv F
  0.388889  0.055556  0.000000    0.00308642  17 t-inv F
  0.444444  0.055556  0.000000    0.00308642  18 t-inv F
  0.111111  0.111111  0.000000    0.00308642  19 t-inv F
  0.166667  0.111111  0.000000    0.00308642  20 t-inv F
  0.222222  0.111111  0.000000    0.00308642  21 t-inv F
  0.277778  0.111111  0.000000    0.00308642  22 t-inv F
  0.333333  0.111111  0.000000    0.00308642  23 t-inv F
  0.388889  0.111111  0.000000    0.00308642  24 t-inv F
  0.444444  0.111111  0.000000    0.00308642  25 t-inv F
  0.166667  0.166667  0.000000    0.00308642  26 t-inv F
  0.222222  0.166667  0.000000    0.00308642  27 t-inv F
  0.277778  0.166667  0.000000    0.00308642  28 t-inv F
  0.333333  0.166667  0.000000    0.00308642  29 t-inv F
  0.388889  0.166667  0.000000    0.00308642  30 t-inv F
  0.222222  0.222222  0.000000    0.00308642  31 t-inv F
  0.277778  0.222222  0.000000    0.00308642  32 t-inv F
  0.333333  0.222222  0.000000    0.00308642  33 t-inv F
  0.388889  0.222222  0.000000    0.00308642  34 t-inv F
  0.277778  0.277778  0.000000    0.00308642  35 t-inv F
  0.333333  0.277778  0.000000    0.00308642  36 t-inv F
  0.333333  0.333333  0.000000    0.00308642  37 t-inv F
 -0.055556  0.055556  0.000000    0.00308642   2 t-inv F
  0.000000 -0.055556 -0.000000    0.00308642   2 t-inv F
 -0.111111  0.111111  0.000000    0.00308642   3 t-inv F
  0.000000 -0.111111 -0.000000    0.00308642   3 t-inv F
 -0.166667  0.166667  0.000000    0.00308642   4 t-inv F
  0.000000 -0.166667 -0.000000    0.00308642   4 t-inv F
 -0.222222  0.222222  0.000000    0.00308642   5 t-inv F
  0.000000 -0.222222 -0.000000    0.00308642   5 t-inv F
 -0.277778  0.277778  0.000000    0.00308642   6 t-inv F
  0.000000 -0.277778 -0.000000    0.00308642   6 t-inv F
 -0.333333  0.333333  0.000000    0.00308642   7 t-inv F
  0.000000 -0.333333 -0.000000    0.00308642   7 t-inv F
 -0.388889  0.388889  0.000000    0.00308642   8 t-inv F
  0.000000 -0.388889 -0.000000    0.00308642   8 t-inv F
 -0.444444  0.444444  0.000000    0.00308642   9 t-inv F
  0.000000 -0.444444 -0.000000    0.00308642   9 t-inv F
 -0.500000  0.500000  0.000000    0.00308642  10 t-inv F
  0.000000 -0.500000 -0.000000    0.00308642  10 t-inv F
 -0.055556  0.111111  0.000000    0.00308642  11 t-inv F
  0.055556 -0.111111 -0.000000    0.00308642  11 t-inv F
 -0.111111  0.055556  0.000000    0.00308642  11 t-inv F
 -0.055556 -0.055556 -0.000000    0.00308642  11 t-inv F
  0.111111 -0.055556  0.000000    0.00308642  11 t-inv F
 -0.111111  0.166667  0.000000    0.00308642  12 t-inv F
  0.055556 -0.166667 -0.000000    0.00308642  12 t-inv F
 -0.166667  0.111111  0.000000    0.00308642  12 t-inv F
 -0.055556 -0.111111 -0.000000    0.00308642  12 t-inv F
  0.166667 -0.055556  0.000000    0.00308642  12 t-inv F
 -0.166667  0.222222  0.000000    0.00308642  13 t-inv F
  0.055556 -0.222222 -0.000000    0.00308642  13 t-inv F
 -0.222222  0.166667  0.000000    0.00308642  13 t-inv F
 -0.055556 -0.166667 -0.000000    0.00308642  13 t-inv F
  0.222222 -0.055556  0.000000    0.00308642  13 t-inv F
 -0.222222  0.277778  0.000000    0.00308642  14 t-inv F
  0.055556 -0.277778 -0.000000    0.00308642  14 t-inv F
 -0.277778  0.222222  0.000000    0.00308642  14 t-inv F
 -0.055556 -0.222222 -0.000000    0.00308642  14 t-inv F
  0.277778 -0.055556  0.000000    0.00308642  14 t-inv F
 -0.277778  0.333333  0.000000    0.00308642  15 t-inv F
  0.055556 -0.333333 -0.000000    0.00308642  15 t-inv F
 -0.333333  0.277778  0.000000    0.00308642  15 t-inv F
 -0.055556 -0.277778 -0.000000    0.00308642  15 t-inv F
  0.333333 -0.055556  0.000000    0.00308642  15 t-inv F
 -0.333333  0.388889  0.000000    0.00308642  16 t-inv F
  0.055556 -0.388889 -0.000000    0.00308642  16 t-inv F
 -0.388889  0.333333  0.000000    0.00308642  16 t-inv F
 -0.055556 -0.333333 -0.000000    0.00308642  16 t-inv F
  0.388889 -0.055556  0.000000    0.00308642  16 t-inv F
 -0.388889  0.444444  0.000000    0.00308642  17 t-inv F
  0.055556 -0.444444 -0.000000    0.00308642  17 t-inv F
 -0.444444  0.388889  0.000000    0.00308642  17 t-inv F
 -0.055556 -0.388889 -0.000000    0.00308642  17 t-inv F
  0.444444 -0.055556  0.000000    0.00308642  17 t-inv F
 -0.444444  0.500000  0.000000    0.00308642  18 t-inv F
  0.055556 -0.500000 -0.000000    0.00308642  18 t-inv F
 -0.500000  0.444444  0.000000    0.00308642  18 t-inv F
 -0.055556 -0.444444 -0.000000    0.00308642  18 t-inv F
  0.500000 -0.055556  0.000000    0.00308642  18 t-inv F
 -0.111111  0.222222  0.000000    0.00308642  19 t-inv F
  0.111111 -0.222222 -0.000000    0.00308642  19 t-inv F
 -0.222222  0.111111  0.000000    0.00308642  19 t-inv F
 -0.111111 -0.111111 -0.000000    0.00308642  19 t-inv F
  0.222222 -0.111111  0.000000    0.00308642  19 t-inv F
 -0.166667  0.277778  0.000000    0.00308642  20 t-inv F
  0.111111 -0.277778 -0.000000    0.00308642  20 t-inv F
 -0.277778  0.166667  0.000000    0.00308642  20 t-inv F
 -0.111111 -0.166667 -0.000000    0.00308642  20 t-inv F
  0.277778 -0.111111  0.000000    0.00308642  20 t-inv F
 -0.222222  0.333333  0.000000    0.00308642  21 t-inv F
  0.111111 -0.333333 -0.000000    0.00308642  21 t-inv F
 -0.333333  0.222222  0.000000    0.00308642  21 t-inv F
 -0.111111 -0.222222 -0.000000    0.00308642  21 t-inv F
  0.333333 -0.111111  0.000000    0.00308642  21 t-inv F
 -0.277778  0.388889  0.000000    0.00308642  22 t-inv F
  0.111111 -0.388889 -0.000000    0.00308642  22 t-inv F
 -0.388889  0.277778  0.000000    0.00308642  22 t-inv F
 -0.111111 -0.277778 -0.000000    0.00308642  22 t-inv F
  0.388889 -0.111111  0.000000    0.00308642  22 t-inv F
 -0.333333  0.444444  0.000000    0.00308642  23 t-inv F
  0.111111 -0.444444 -0.000000    0.00308642  23 t-inv F
 -0.444444  0.333333  0.000000    0.00308642  23 t-inv F
 -0.111111 -0.333333 -0.000000    0.00308642  23 t-inv F
  0.444444 -0.111111  0.000000    0.00308642  23 t-inv F
 -0.388889  0.500000  0.000000    0.00308642  24 t-inv F
  0.111111 -0.500000 -0.000000    0.00308642  24 t-inv F
 -0.500000  0.388889  0.000000    0.00308642  24 t-inv F
 -0.111111 -0.388889 -0.000000    0.00308642  24 t-inv F
  0.500000 -0.111111  0.000000    0.00308642  24 t-inv F
 -0.444444  0.555556  0.000000    0.00308642  25 t-inv F
  0.111111 -0.555556 -0.000000    0.00308642  25 t-inv F
 -0.555556  0.444444  0.000000    0.00308642  25 t-inv F
 -0.111111 -0.444444 -0.000000    0.00308642  25 t-inv F
  0.555556 -0.111111  0.000000    0.00308642  25 t-inv F
 -0.166667  0.333333  0.000000    0.00308642  26 t-inv F
  0.166667 -0.333333 -0.000000    0.00308642  26 t-inv F
 -0.333333  0.166667  0.000000    0.00308642  26 t-inv F
 -0.166667 -0.166667 -0.000000    0.00308642  26 t-inv F
  0.333333 -0.166667  0.000000    0.00308642  26 t-inv F
 -0.222222  0.388889  0.000000    0.00308642  27 t-inv F
  0.166667 -0.388889 -0.000000    0.00308642  27 t-inv F
 -0.388889  0.222222  0.000000    0.00308642  27 t-inv F
 -0.166667 -0.222222 -0.000000    0.00308642  27 t-inv F
  0.388889 -0.166667  0.000000    0.00308642  27 t-inv F
 -0.277778  0.444444  0.000000    0.00308642  28 t-inv F
  0.166667 -0.444444 -0.000000    0.00308642  28 t-inv F
 -0.444444  0.277778  0.000000    0.00308642  28 t-inv F
 -0.166667 -0.277778 -0.000000    0.00308642  28 t-inv F
  0.444444 -0.166667  0.000000    0.00308642  28 t-inv F
 -0.333333  0.500000  0.000000    0.00308642  29 t-inv F
  0.166667 -0.500000 -0.000000    0.00308642  29 t-inv F
 -0.500000  0.333333  0.000000    0.00308642  29 t-inv F
 -0.166667 -0.333333 -0.000000    0.00308642  29 t-inv F
  0.500000 -0.166667  0.000000    0.00308642  29 t-inv F
 -0.388889  0.555556  0.000000    0.00308642  30 t-inv F
  0.166667 -0.555556 -0.000000    0.00308642  30 t-inv F
 -0.555556  0.388889  0.000000    0.00308642  30 t-inv F
 -0.166667 -0.388889 -0.000000    0.00308642  30 t-inv F
  0.555556 -0.166667  0.000000    0.00308642  30 t-inv F
 -0.222222  0.444444  0.000000    0.00308642  31 t-inv F
  0.222222 -0.444444 -0.000000    0.00308642  31 t-inv F
 -0.444444  0.222222  0.000000    0.00308642  31 t-inv F
 -0.222222 -0.222222 -0.000000    0.00308642  31 t-inv F
  0.444444 -0.222222  0.000000    0.00308642  31 t-inv F
 -0.277778  0.500000  0.000000    0.00308642  32 t-inv F
  0.222222 -0.500000 -0.000000    0.00308642  32 t-inv F
 -0.500000  0.277778  0.000000    0.00308642  32 t-inv F
 -0.222222 -0.277778 -0.000000    0.00308642  32 t-inv F
  0.500000 -0.222222  0.000000    0.00308642  32 t-inv F
 -0.333333  0.555556  0.000000    0.00308642  33 t-inv F
  0.222222 -0.555556 -0.000000    0.00308642  33 t-inv F
 -0.555556  0.333333  0.000000    0.00308642  33 t-inv F
 -0.222222 -0.333333 -0.000000    0.00308642  33 t-inv F
  0.555556 -0.222222  0.000000    0.00308642  33 t-inv F
 -0.388889  0.611111  0.000000    0.00308642  34 t-inv F
  0.222222 -0.611111 -0.000000    0.00308642  34 t-inv F
 -0.611111  0.388889  0.000000    0.00308642  34 t-inv F
 -0.222222 -0.388889 -0.000000    0.00308642  34 t-inv F
  0.611111 -0.222222  0.000000    0.00308642  34 t-inv F
 -0.277778  0.555556  0.000000    0.00308642  35 t-inv F
  0.277778 -0.555556 -0.000000    0.00308642  35 t-inv F
 -0.555556  0.277778  0.000000    0.00308642  35 t-inv F
 -0.277778 -0.277778 -0.000000    0.00308642  35 t-inv F
  0.555556 -0.277778  0.000000    0.00308642  35 t-inv F
 -0.333333  0.611111  0.000000    0.00308642  36 t-inv F
  0.277778 -0.611111 -0.000000    0.00308642  36 t-inv F
 -0.611111  0.333333  0.000000    0.00308642  36 t-inv F
 -0.277778 -0.333333 -0.000000    0.00308642  36 t-inv F
  0.611111 -0.277778  0.000000    0.00308642  36 t-inv F
 -0.333333  0.666667  0.000000    0.00308642  37 t-inv F
 -0.055556 -0.000000 -0.000000    0.00308642   2 t-inv T
  0.055556 -0.055556 -0.000000    0.00308642   2 t-inv T
 -0.000000  0.055556  0.000000    0.00308642   2 t-inv T
 -0.111111 -0.000000 -0.000000    0.00308642   3 t-inv T
  0.111111 -0.111111 -0.000000    0.00308642   3 t-inv T
 -0.000000  0.111111  0.000000    0.00308642   3 t-inv T
 -0.166667 -0.000000 -0.000000    0.00308642   4 t-inv T
  0.166667 -0.166667 -0.000000    0.00308642   4 t-inv T
 -0.000000  0.166667  0.000000    0.00308642   4 t-inv T
 -0.222222 -0.000000 -0.000000    0.00308642   5 t-inv T
  0.222222 -0.222222 -0.000000    0.00308642   5 t-inv T
 -0.000000  0.222222  0.000000    0.00308642   5 t-inv T
 -0.277778 -0.000000 -0.000000    0.00308642   6 t-inv T
  0.277778 -0.277778 -0.000000    0.00308642   6 t-inv T
 -0.000000  0.277778  0.000000    0.00308642   6 t-inv T
 -0.333333 -0.000000 -0.000000    0.00308642   7 t-inv T
  0.333333 -0.333333 -0.000000    0.00308642   7 t-inv T
 -0.000000  0.333333  0.000000    0.00308642   7 t-inv T
 -0.388889 -0.000000 -0.000000    0.00308642   8 t-inv T
  0.388889 -0.388889 -0.000000    0.00308642   8 t-inv T
 -0.000000  0.388889  0.000000    0.00308642   8 t-inv T
 -0.444444 -0.000000 -0.000000    0.00308642   9 t-inv T
  0.444444 -0.444444 -0.000000    0.00308642   9 t-inv T
 -0.000000  0.444444  0.000000    0.00308642   9 t-inv T
 -0.111111 -0.055556 -0.000000    0.00308642  12 t-inv T
  0.111111 -0.166667 -0.000000    0.00308642  12 t-inv T
 -0.055556  0.166667  0.000000    0.00308642  12 t-inv T
  0.166667 -0.111111 -0.000000    0.00308642  12 t-inv T
  0.055556  0.111111  0.000000    0.00308642  12 t-inv T
 -0.166667  0.055556 -0.000000    0.00308642  12 t-inv T
 -0.166667 -0.055556 -0.000000    0.00308642  13 t-inv T
  0.166667 -0.222222 -0.000000    0.00308642  13 t-inv T
 -0.055556  0.222222  0.000000    0.00308642  13 t-inv T
  0.222222 -0.166667 -0.000000    0.00308642  13 t-inv T
  0.055556  0.166667  0.000000    0.00308642  13 t-inv T
 -0.222222  0.055556 -0.000000    0.00308642  13 t-inv T
 -0.222222 -0.055556 -0.000000    0.00308642  14 t-inv T
  0.222222 -0.277778 -0.000000    0.00308642  14 t-inv T
 -0.055556  0.277778  0.000000    0.00308642  14 t-inv T
  0.277778 -0.222222 -0.000000    0.00308642  14 t-inv T
  0.055556  0.222222  0.000000    0.00308642  14 t-inv T
 -0.277778  0.055556 -0.000000    0.00308642  14 t-inv T
 -0.277778 -0.055556 -0.000000    0.00308642  15 t-inv T
  0.277778 -0.333333 -0.000000    0.00308642  15 t-inv T
 -0.055556  0.333333  0.000000    0.00308642  15 t-inv T
  0.333333 -0.277778 -0.000000    0.00308642  15 t-inv T
  0.055556  0.277778  0.000000    0.00308642  15 t-inv T
 -0.333333  0.055556 -0.000000    0.00308642  15 t-inv T
 -0.333333 -0.055556 -0.000000    0.00308642  16 t-inv T
  0.333333 -0.388889 -0.000000    0.00308642  16 t-inv T
 -0.055556  0.388889  0.000000    0.00308642  16 t-inv T
  0.388889 -0.333333 -0.000000    0.00308642  16 t-inv T
  0.055556  0.333333  0.000000    0.00308642  16 t-inv T
 -0.388889  0.055556 -0.000000    0.00308642  16 t-inv T
 -0.388889 -0.055556 -0.000000    0.00308642  17 t-inv T
  0.388889 -0.444444 -0.000000    0.00308642  17 t-inv T
 -0.055556  0.444444  0.000000    0.00308642  17 t-inv T
  0.444444 -0.388889 -0.000000    0.00308642  17 t-inv T
  0.055556  0.388889  0.000000    0.00308642  17 t-inv T
 -0.444444  0.055556 -0.000000    0.00308642  17 t-inv T
 -0.444444 -0.055556 -0.000000    0.00308642  18 t-inv T
  0.444444 -0.500000 -0.000000    0.00308642  18 t-inv T
 -0.055556  0.500000  0.000000    0.00308642  18 t-inv T
  0.500000 -0.444444 -0.000000    0.00308642  18 t-inv T
  0.055556  0.444444  0.000000    0.00308642  18 t-inv T
 -0.500000  0.055556 -0.000000    0.00308642  18 t-inv T
 -0.166667 -0.111111 -0.000000    0.00308642  20 t-inv T
  0.166667 -0.277778 -0.000000    0.00308642  20 t-inv T
 -0.111111  0.277778  0.000000    0.00308642  20 t-inv T
  0.277778 -0.166667 -0.000000    0.00308642  20 t-inv T
  0.111111  0.166667  0.000000    0.00308642  20 t-inv T
 -0.277778  0.111111 -0.000000    0.00308642  20 t-inv T
 -0.222222 -0.111111 -0.000000    0.00308642  21 t-inv T
  0.222222 -0.333333 -0.000000    0.00308642  21 t-inv T
 -0.111111  0.333333  0.000000    0.00308642  21 t-inv T
  0.333333 -0.222222 -0.000000    0.00308642  21 t-inv T
  0.111111  0.222222  0.000000    0.00308642  21 t-inv T
 -0.333333  0.111111 -0.000000    0.00308642  21 t-inv T
 -0.277778 -0.111111 -0.000000    0.00308642  22 t-inv T
  0.277778 -0.388889 -0.000000    0.00308642  22 t-inv T
 -0.111111  0.388889  0.000000    0.00308642  22 t-inv T
  0.388889 -0.277778 -0.000000    0.00308642  22 t-inv T
  0.111111  0.277778  0.000000    0.00308642  22 t-inv T
 -0.388889  0.111111 -0.000000    0.00308642  22 t-inv T
 -0.333333 -0.111111 -0.000000    0.00308642  23 t-inv T
  0.333333 -0.444444 -0.000000    0.00308642  23 t-inv T
 -0.111111  0.444444  0.000000    0.00308642  23 t-inv T
  0.444444 -0.333333 -0.000000    0.00308642  23 t-inv T
  0.111111  0.333333  0.000000    0.00308642  23 t-inv T
 -0.444444  0.111111 -0.000000    0.00308642  23 t-inv T
 -0.388889 -0.111111 -0.000000    0.00308642  24 t-inv T
  0.388889 -0.500000 -0.000000    0.00308642  24 t-inv T
 -0.111111  0.500000  0.000000    0.00308642  24 t-inv T
  0.500000 -0.388889 -0.000000    0.00308642  24 t-inv T
  0.111111  0.388889  0.000000    0.00308642  24 t-inv T
 -0.500000  0.111111 -0.000000    0.00308642  24 t-inv T
 -0.222222 -0.166667 -0.000000    0.00308642  27 t-inv T
  0.222222 -0.388889 -0.000000    0.00308642  27 t-inv T
 -0.166667  0.388889  0.000000    0.00308642  27 t-inv T
  0.388889 -0.222222 -0.000000    0.00308642  27 t-inv T
  0.166667  0.222222  0.000000    0.00308642  27 t-inv T
 -0.388889  0.166667 -0.000000    0.00308642  27 t-inv T
 -0.277778 -0.166667 -0.000000    0.00308642  28 t-inv T
  0.277778 -0.444444 -0.000000    0.00308642  28 t-inv T
 -0.166667  0.444444  0.000000    0.00308642  28 t-inv T
  0.444444 -0.277778 -0.000000    0.00308642  28 t-inv T
  0.166667  0.277778  0.000000    0.00308642  28 t-inv T
 -0.444444  0.166667 -0.000000    0.00308642  28 t-inv T
 -0.333333 -0.166667 -0.000000    0.00308642  29 t-inv T
  0.333333 -0.500000 -0.000000    0.00308642  29 t-inv T
 -0.166667  0.500000  0.000000    0.00308642  29 t-inv T
  0.500000 -0.333333 -0.000000    0.00308642  29 t-inv T
  0.166667  0.333333  0.000000    0.00308642  29 t-inv T
 -0.500000  0.166667 -0.000000    0.00308642  29 t-inv T
 -0.388889 -0.166667 -0.000000    0.00308642  30 t-inv T
  0.388889 -0.555556 -0.000000    0.00308642  30 t-inv T
 -0.166667  0.555556  0.000000    0.00308642  30 t-inv T
  0.555556 -0.388889 -0.000000    0.00308642  30 t-inv T
  0.166667  0.388889  0.000000    0.00308642  30 t-inv T
 -0.555556  0.166667 -0.000000    0.00308642  30 t-inv T
 -0.277778 -0.222222 -0.000000    0.00308642  32 t-inv T
  0.277778 -0.500000 -0.000000    0.00308642  32 t-inv T
 -0.222222  0.500000  0.000000    0.00308642  32 t-inv T
  0.500000 -0.277778 -0.000000    0.00308642  32 t-inv T
  0.222222  0.277778  0.000000    0.00308642  32 t-inv T
 -0.500000  0.222222 -0.000000    0.00308642  32 t-inv T
 -0.333333 -0.222222 -0.000000    0.00308642  33 t-inv T
  0.333333 -0.555556 -0.000000    0.00308642  33 t-inv T
 -0.222222  0.555556  0.000000    0.00308642  33 t-inv T
  0.555556 -0.333333 -0.000000    0.00308642  33 t-inv T
  0.222222  0.333333  0.000000    0.00308642  33 t-inv T
 -0.555556  0.222222 -0.000000    0.00308642  33 t-inv T
 -0.333333 -0.277778 -0.000000    0.00308642  36 t-inv T
  0.333333 -0.611111 -0.000000    0.00308642  36 t-inv T
 -0.277778  0.611111  0.000000    0.00308642  36 t-inv T
  0.611111 -0.333333 -0.000000    0.00308642  36 t-inv T
  0.277778  0.333333  0.000000    0.00308642  36 t-inv T
 -0.611111  0.277778 -0.000000    0.00308642  36 t-inv T


--------------------------------------------------------------------------------------------------------




 Dimension of arrays:
   k-points           NKPTS =     37   k-points in BZ     NKDIM =     37   number of bands    NBANDS=     56
   number of dos      NEDOS =    301   number of ions     NIONS =      9
   non local maximal  LDIM  =     11   non local SUM 2l+1 LMDIM =     41
   total plane-waves  NPLWV = 128000
   max r-space proj   IRMAX =      1   max aug-charges    IRDMAX=  11329
   dimension x,y,z NGX =    20 NGY =   20 NGZ =  320
   dimension x,y,z NGXF=    40 NGYF=   40 NGZF=  640
   support grid    NGXF=    40 NGYF=   40 NGZF=  640
   ions per type =               3   6
 NGX,Y,Z   is equivalent  to a cutoff of  10.44, 10.44, 10.64 a.u.
 NGXF,Y,Z  is equivalent  to a cutoff of  20.88, 20.88, 21.28 a.u.


 I would recommend the setting:
   dimension x,y,z NGX =    19 NGY =   19 NGZ =  303
 SYSTEM =  unknown system                          
 POSCAR =  Mo  S                                   

 Startparameter for this run:
   NWRITE =      2    write-flag & timer
   PREC   = accura    normal or accurate (medium, high low for compatibility)
   ISTART =      0    job   : 0-new  1-cont  2-samecut
   ICHARG =      2    charge: 1-file 2-atom 10-const
   ISPIN  =      1    spin polarized calculation?
   LNONCOLLINEAR =      F non collinear calculations
   LSORBIT =      F    spin-orbit coupling
   INIWAV =      1    electr: 0-lowe 1-rand  2-diag
   LASPH  =      F    aspherical Exc in radial PAW
   METAGGA=      F    non-selfconsistent MetaGGA calc.

 Electronic Relaxation 1
   ENCUT  =  344.9 eV  25.35 Ry    5.03 a.u.   4.82  4.82 75.72*2*pi/ulx,y,z
   ENINI  =  344.9     initial cutoff
   ENAUG  =  964.7 eV  augmentation charge cutoff
   NELM   =     60;   NELMIN=  5; NELMDL= -5     # of ELM steps 
   EDIFF  = 0.1E-07   stopping-criterion for ELM
   LREAL  =      F    real-space projection
   NLSPLINE    = F    spline interpolate recip. space projectors
   LCOMPAT=      F    compatible to vasp.4.4
   GGA_COMPAT  = T    GGA compatible to vasp.4.4-vasp.4.6
   LMAXPAW     = -100 max onsite density
   LMAXMIX     =    2 max onsite mixed and CHGCAR
   VOSKOWN=      0    Vosko Wilk Nusair interpolation
   ROPT   =    0.00000   0.00000
 Ionic relaxation
   EDIFFG = 0.1E-06   stopping-criterion for IOM
   NSW    =      0    number of steps for IOM
   NBLOCK =      1;   KBLOCK =      1    inner block; outer block 
   IBRION =     -1    ionic relax: 0-MD 1-quasi-New 2-CG
   NFREE  =      0    steps in history (QN), initial steepest desc. (CG)
   ISIF   =      2    stress and relaxation
   IWAVPR =     10    prediction:  0-non 1-charg 2-wave 3-comb
   ISYM   =      2    0-nonsym 1-usesym 2-fastsym
   LCORR  =      T    Harris-Foulkes like correction to forces

   POTIM  = 0.5000    time-step for ionic-motion
   TEIN   =    0.0    initial temperature
   TEBEG  =    0.0;   TEEND  =   0.0 temperature during run
   SMASS  =  -3.00    Nose mass-parameter (am)
   estimated Nose-frequenzy (Omega)   =  0.10E-29 period in steps =****** mass=  -0.232E-27a.u.
   SCALEE = 1.0000    scale energy and forces
   NPACO  =    256;   APACO  = 16.0  distance and # of slots for P.C.
   PSTRESS=    0.0 pullay stress

  Mass of Ions in am
   POMASS =  95.94 32.07
  Ionic Valenz
   ZVAL   =  14.00  6.00
  Atomic Wigner-Seitz radii
   RWIGS  =  -1.00 -1.00
  virtual crystal weights 
   VCA    =   1.00  1.00
   NELECT =      78.0000    total number of electrons
   NUPDOWN=      -1.0000    fix difference up-down

 DOS related values:
   EMIN   =  10.00;   EMAX   =-10.00  energy-range for DOS
   EFERMI =   0.00
   ISMEAR =    -5;   SIGMA  =   0.01  broadening in eV -4-tet -1-fermi 0-gaus

 Electronic relaxation 2 (details)
   IALGO  =     38    algorithm
   LDIAG  =      T    sub-space diagonalisation (order eigenvalues)
   LSUBROT=      F    optimize rotation matrix (better conditioning)
   TURBO    =      0    0=normal 1=particle mesh
   IRESTART =      0    0=no restart 2=restart with 2 vectors
   NREBOOT  =      0    no. of reboots
   NMIN     =      0    reboot dimension
   EREF     =   0.00    reference energy to select bands
   IMIX   =      4    mixing-type and parameters
     AMIX     =   0.40;   BMIX     =  1.00
     AMIX_MAG =   1.60;   BMIX_MAG =  1.00
     AMIN     =   0.10
     WC   =   100.;   INIMIX=   1;  MIXPRE=   1;  MAXMIX= -45

 Intra band minimization:
   WEIMIN = 0.0000     energy-eigenvalue tresh-hold
   EBREAK =  0.45E-10  absolut break condition
   DEPER  =   0.30     relativ break condition  

   TIME   =   0.40     timestep for ELM

  volume/ion in A,a.u.               =      48.78       329.17
  Fermi-wavevector in a.u.,A,eV,Ry     =   0.920347  1.739203 11.524649  0.847038
  Thomas-Fermi vector in A             =   2.045642
 
 Write flags
   LWAVE  =      T    write WAVECAR
   LCHARG =      T    write CHGCAR
   LVTOT  =      F    write LOCPOT, total local potential
   LVHAR  =      F    write LOCPOT, Hartree potential only
   LELF   =      F    write electronic localiz. function (ELF)
   LORBIT =      0    0 simple, 1 ext, 2 COOP (PROOUT)


 Dipole corrections
   LMONO  =      F    monopole corrections only (constant potential shift)
   LDIPOL =      F    correct potential (dipole corrections)
   IDIPOL =      0    1-x, 2-y, 3-z, 4-all directions 
   EPSILON=  1.0000000 bulk dielectric constant

 Exchange correlation treatment:
   GGA     =    PE    GGA type
   LEXCH   =     8    internal setting for exchange type
   VOSKOWN=      0    Vosko Wilk Nusair interpolation
   LHFCALC =     F    Hartree Fock is set to
   LHFONE  =     F    Hartree Fock one center treatment
   AEXX    =    0.0000 exact exchange contribution

 Linear response parameters
   LEPSILON=     T    determine dielectric tensor
   LRPA    =     F    only Hartree local field effects (RPA)
   LNABLA  =     F    use nabla operator in PAW spheres
   LVEL    =     F    velocity operator in full k-point grid
   LINTERFAST=   F  fast interpolation
   KINTER  =     0    interpolate to denser k-point grid
   CSHIFT  =0.1000    complex shift for real part using Kramers Kronig
   OMEGAMAX=  -1.0    maximum frequency
   DEG_THRESHOLD= 0.2000000E-02 threshold for treating states as degnerate
   RTIME   =    0.100 relaxation time in fs

 Orbital magnetization related:
   ORBITALMAG=     F  switch on orbital magnetization
   LCHIMAG   =     F  perturbation theory with respect to B field
   DQ        =  0.001000  dq finite difference perturbation B field



--------------------------------------------------------------------------------------------------------


 Static calculation
 charge density and potential will be updated during run
 non-spin polarized calculation
 Variant of blocked Davidson
 Davidson routine will perform the subspace rotation
 perform sub-space diagonalisation
    after iterative eigenvector-optimisation
 modified Broyden-mixing scheme, WC =      100.0
 initial mixing is a Kerker type mixing with AMIX =  0.4000 and BMIX =      1.0000
 Hartree-type preconditioning will be used
 using additional bands           17
 reciprocal scheme for non local part
 use partial core corrections
 calculate Harris-corrections to forces 
   (improved forces if not selfconsistent)
 use gradient corrections 
 use of overlap-Matrix (Vanderbilt PP)
 Fermi weights with tetrahedron method with Bloechl corrections


--------------------------------------------------------------------------------------------------------


  energy-cutoff  :      344.91
  volume of cell :      439.00
      direct lattice vectors                 reciprocal lattice vectors
     3.184066465  0.000000000  0.000000000     0.314063796  0.181324817  0.000000000
    -1.592033232  2.757482446  0.000000000     0.000000000  0.362649634  0.000000000
     0.000000000  0.000000000 50.000000000     0.000000000  0.000000000  0.020000000

  length of vectors
     3.184066465  3.184066465 50.000000000     0.362649634  0.362649634  0.020000000


 
 k-points in units of 2pi/SCALE and weight: KPOINTS created by Atomic Simulation Env
   0.00000000  0.00000000  0.00000000       0.003
   0.01744799  0.01007360  0.00000000       0.019
   0.03489598  0.02014720  0.00000000       0.019
   0.05234397  0.03022080  0.00000000       0.019
   0.06979195  0.04029440  0.00000000       0.019
   0.08723994  0.05036800  0.00000000       0.019
   0.10468793  0.06044161  0.00000000       0.019
   0.12213592  0.07051521  0.00000000       0.019
   0.13958391  0.08058881  0.00000000       0.019
   0.15703190  0.09066241  0.00000000       0.009
   0.01744799  0.03022080  0.00000000       0.019
   0.03489598  0.04029440  0.00000000       0.037
   0.05234397  0.05036800  0.00000000       0.037
   0.06979195  0.06044161  0.00000000       0.037
   0.08723994  0.07051521  0.00000000       0.037
   0.10468793  0.08058881  0.00000000       0.037
   0.12213592  0.09066241  0.00000000       0.037
   0.13958391  0.10073601  0.00000000       0.037
   0.03489598  0.06044161  0.00000000       0.019
   0.05234397  0.07051521  0.00000000       0.037
   0.06979195  0.08058881  0.00000000       0.037
   0.08723994  0.09066241  0.00000000       0.037
   0.10468793  0.10073601  0.00000000       0.037
   0.12213592  0.11080961  0.00000000       0.037
   0.13958391  0.12088321  0.00000000       0.019
   0.05234397  0.09066241  0.00000000       0.019
   0.06979195  0.10073601  0.00000000       0.037
   0.08723994  0.11080961  0.00000000       0.037
   0.10468793  0.12088321  0.00000000       0.037
   0.12213592  0.13095681  0.00000000       0.037
   0.06979195  0.12088321  0.00000000       0.019
   0.08723994  0.13095681  0.00000000       0.037
   0.10468793  0.14103041  0.00000000       0.037
   0.12213592  0.15110401  0.00000000       0.019
   0.08723994  0.15110401  0.00000000       0.019
   0.10468793  0.16117762  0.00000000       0.037
   0.10468793  0.18132482  0.00000000       0.006
 
 k-points in reciprocal lattice and weights: KPOINTS created by Atomic Simulation Env
   0.00000000  0.00000000  0.00000000       0.003
   0.05555556  0.00000000  0.00000000       0.019
   0.11111111  0.00000000  0.00000000       0.019
   0.16666667  0.00000000  0.00000000       0.019
   0.22222222  0.00000000  0.00000000       0.019
   0.27777778  0.00000000  0.00000000       0.019
   0.33333333  0.00000000  0.00000000       0.019
   0.38888889  0.00000000  0.00000000       0.019
   0.44444444  0.00000000  0.00000000       0.019
   0.50000000  0.00000000  0.00000000       0.009
   0.05555556  0.05555556  0.00000000       0.019
   0.11111111  0.05555556  0.00000000       0.037
   0.16666667  0.05555556  0.00000000       0.037
   0.22222222  0.05555556  0.00000000       0.037
   0.27777778  0.05555556  0.00000000       0.037
   0.33333333  0.05555556  0.00000000       0.037
   0.38888889  0.05555556  0.00000000       0.037
   0.44444444  0.05555556  0.00000000       0.037
   0.11111111  0.11111111  0.00000000       0.019
   0.16666667  0.11111111  0.00000000       0.037
   0.22222222  0.11111111  0.00000000       0.037
   0.27777778  0.11111111  0.00000000       0.037
   0.33333333  0.11111111  0.00000000       0.037
   0.38888889  0.11111111  0.00000000       0.037
   0.44444444  0.11111111  0.00000000       0.019
   0.16666667  0.16666667  0.00000000       0.019
   0.22222222  0.16666667  0.00000000       0.037
   0.27777778  0.16666667  0.00000000       0.037
   0.33333333  0.16666667  0.00000000       0.037
   0.38888889  0.16666667  0.00000000       0.037
   0.22222222  0.22222222  0.00000000       0.019
   0.27777778  0.22222222  0.00000000       0.037
   0.33333333  0.22222222  0.00000000       0.037
   0.38888889  0.22222222  0.00000000       0.019
   0.27777778  0.27777778  0.00000000       0.019
   0.33333333  0.27777778  0.00000000       0.037
   0.33333333  0.33333333  0.00000000       0.006
 
 position of ions in fractional coordinates (direct lattice) 
   0.16666667  0.33333333  0.37700000
   0.83333333  0.66666667  0.50000000
   0.16666667  0.33333333  0.62300000
   0.83333333  0.66666667  0.40827113
   0.83333333  0.66666667  0.34572887
   0.16666667  0.33333333  0.53127113
   0.16666667  0.33333333  0.46872887
   0.83333333  0.66666667  0.65427113
   0.83333333  0.66666667  0.59172887
 
 position of ions in cartesian coordinates  (Angst):
  -0.00000000  0.91916082 18.85000000
   1.59203323  1.83832163 25.00000000
  -0.00000000  0.91916082 31.15000000
   1.59203323  1.83832163 20.41355632
   1.59203323  1.83832163 17.28644368
  -0.00000000  0.91916082 26.56355632
  -0.00000000  0.91916082 23.43644368
   1.59203323  1.83832163 32.71355632
   1.59203323  1.83832163 29.58644368
 


--------------------------------------------------------------------------------------------------------


 k-point  1 :   0.0000 0.0000 0.0000  plane waves:    6379
 k-point  2 :   0.0556 0.0000 0.0000  plane waves:    6371
 k-point  3 :   0.1111 0.0000 0.0000  plane waves:    6357
 k-point  4 :   0.1667 0.0000 0.0000  plane waves:    6343
 k-point  5 :   0.2222 0.0000 0.0000  plane waves:    6348
 k-point  6 :   0.2778 0.0000 0.0000  plane waves:    6382
 k-point  7 :   0.3333 0.0000 0.0000  plane waves:    6374
 k-point  8 :   0.3889 0.0000 0.0000  plane waves:    6386
 k-point  9 :   0.4444 0.0000 0.0000  plane waves:    6428
 k-point 10 :   0.5000 0.0000 0.0000  plane waves:    6428
 k-point 11 :   0.0556 0.0556 0.0000  plane waves:    6371
 k-point 12 :   0.1111 0.0556 0.0000  plane waves:    6351
 k-point 13 :   0.1667 0.0556 0.0000  plane waves:    6336
 k-point 14 :   0.2222 0.0556 0.0000  plane waves:    6361
 k-point 15 :   0.2778 0.0556 0.0000  plane waves:    6389
 k-point 16 :   0.3333 0.0556 0.0000  plane waves:    6385
 k-point 17 :   0.3889 0.0556 0.0000  plane waves:    6391
 k-point 18 :   0.4444 0.0556 0.0000  plane waves:    6418
 k-point 19 :   0.1111 0.1111 0.0000  plane waves:    6345
 k-point 20 :   0.1667 0.1111 0.0000  plane waves:    6341
 k-point 21 :   0.2222 0.1111 0.0000  plane waves:    6378
 k-point 22 :   0.2778 0.1111 0.0000  plane waves:    6385
 k-point 23 :   0.3333 0.1111 0.0000  plane waves:    6389
 k-point 24 :   0.3889 0.1111 0.0000  plane waves:    6407
 k-point 25 :   0.4444 0.1111 0.0000  plane waves:    6404
 k-point 26 :   0.1667 0.1667 0.0000  plane waves:    6345
 k-point 27 :   0.2222 0.1667 0.0000  plane waves:    6372
 k-point 28 :   0.2778 0.1667 0.0000  plane waves:    6381
 k-point 29 :   0.3333 0.1667 0.0000  plane waves:    6400
 k-point 30 :   0.3889 0.1667 0.0000  plane waves:    6418
 k-point 31 :   0.2222 0.2222 0.0000  plane waves:    6397
 k-point 32 :   0.2778 0.2222 0.0000  plane waves:    6386
 k-point 33 :   0.3333 0.2222 0.0000  plane waves:    6422
 k-point 34 :   0.3889 0.2222 0.0000  plane waves:    6455
 k-point 35 :   0.2778 0.2778 0.0000  plane waves:    6407
 k-point 36 :   0.3333 0.2778 0.0000  plane waves:    6434
 k-point 37 :   0.3333 0.3333 0.0000  plane waves:    6429

 maximum and minimum number of plane-waves per node :      6455     6336

 maximum number of plane-waves:      6455
 maximum index in each direction: 
   IXMAX=    4   IYMAX=    4   IZMAX=   75
   IXMIN=   -5   IYMIN=   -5   IZMIN=  -75

 NGX is ok and might be reduce to  20
 NGY is ok and might be reduce to  20
 NGZ is ok and might be reduce to 302

 serial   3D FFT for wavefunctions
 parallel 3D FFT for charge:
    minimum data exchange during FFTs selected (reduces bandwidth)


 total amount of memory used by VASP on root node   206720. kBytes
========================================================================

   base      :      30000. kBytes
   nonl-proj :     157922. kBytes
   fftplans  :       2116. kBytes
   grid      :       8000. kBytes
   one-center:        726. kBytes
   wavefun   :       7956. kBytes
 
     INWAV:  cpu time    0.0000: real time    0.0000
 Broyden mixing: mesh for mixing (old mesh)
   NGX =  9   NGY =  9   NGZ =151
  (NGX  = 40   NGY  = 40   NGZ  =640)
  gives a total of  12231 points

 initial charge density was supplied:
 charge density of overlapping atoms calculated
 number of electron      78.0000000 magnetization 
 keeping initial charge density in first step


--------------------------------------------------------------------------------------------------------


 Maximum index for augmentation-charges          907 (set IRDMAX)


--------------------------------------------------------------------------------------------------------


 First call to EWALD:  gamma=   0.233
 Maximum number of real-space cells 7x 7x 1
 Maximum number of reciprocal cells 1x 1x15

 FEWALD executed in parallel
    FEWALD:  cpu time    0.0010: real time    0.0012


----------------------------------------- Iteration    1(   1)  ---------------------------------------


    POTLOK:  cpu time    0.0320: real time    0.0333
    SETDIJ:  cpu time    0.0070: real time    0.0066
     EDDAV:  cpu time    4.4053: real time    4.5035
 BZINTS: Fermi energy: 10.832321; 78.000000 electrons
         Band energy:-734.281457;  BLOECHL correction: -0.062430
       DOS:  cpu time    0.0170: real time    0.0172
    --------------------------------------------
      LOOP:  cpu time    4.4623: real time    4.5628

 eigenvalue-minimisations  :  5180
 total energy-change (2. order) : 0.4880119E+03  (-0.3435652E+04)
 number of electron      78.0000000 magnetization 
 augmentation part       78.0000000 magnetization 

 Free energy of the ion-electron system (eV)
  ---------------------------------------------------
  alpha Z        PSCENC =        98.01002871
  Ewald energy   TEWEN  =    103454.23532293
  -Hartree energ DENC   =   -109885.67121354
  -exchange      EXHF   =         0.00000000
  -V(xc)+E(xc)   XCENC  =       251.20924104
  PAW double counting   =      5857.83557193    -5798.45247575
  entropy T*S    EENTRO =         0.00000000
  eigenvalues    EBANDS =      -734.28145721
  atomic energy  EATOM  =      7245.12686702
  Solvation  Ediel_sol  =         0.00000000
  ---------------------------------------------------
  free energy    TOTEN  =       488.01188513 eV

  energy without entropy =      488.01188513  energy(sigma->0) =      488.01188513


--------------------------------------------------------------------------------------------------------




----------------------------------------- Iteration    1(   2)  ---------------------------------------


     EDDAV:  cpu time    5.1302: real time    5.1332
 BZINTS: Fermi energy:  2.444485; 78.000000 electrons
         Band energy:***********;  BLOECHL correction: -0.003221
       DOS:  cpu time    0.0160: real time    0.0155
    --------------------------------------------
      LOOP:  cpu time    5.1482: real time    5.1533

 eigenvalue-minimisations  :  6048
 total energy-change (2. order) :-0.5207370E+03  (-0.5150774E+03)
 number of electron      78.0000000 magnetization 
 augmentation part       78.0000000 magnetization 

 Free energy of the ion-electron system (eV)
  ---------------------------------------------------
  alpha Z        PSCENC =        98.01002871
  Ewald energy   TEWEN  =    103454.23532293
  -Hartree energ DENC   =   -109885.67121354
  -exchange      EXHF   =         0.00000000
  -V(xc)+E(xc)   XCENC  =       251.20924104
  PAW double counting   =      5857.83557193    -5798.45247575
  entropy T*S    EENTRO =         0.00000000
  eigenvalues    EBANDS =     -1255.01842494
  atomic energy  EATOM  =      7245.12686702
  Solvation  Ediel_sol  =         0.00000000
  ---------------------------------------------------
  free energy    TOTEN  =       -32.72508261 eV

  energy without entropy =      -32.72508261  energy(sigma->0) =      -32.72508261


--------------------------------------------------------------------------------------------------------




----------------------------------------- Iteration    1(   3)  ---------------------------------------


     EDDAV:  cpu time    5.2952: real time    5.2990
 BZINTS: Fermi energy:  0.427587; 78.000000 electrons
         Band energy:***********;  BLOECHL correction:  0.000000
       DOS:  cpu time    0.0030: real time    0.0036
    --------------------------------------------
      LOOP:  cpu time    5.3012: real time    5.3073

 eigenvalue-minimisations  :  6216
 total energy-change (2. order) :-0.4401558E+02  (-0.4383357E+02)
 number of electron      78.0000000 magnetization 
 augmentation part       78.0000000 magnetization 

 Free energy of the ion-electron system (eV)
  ---------------------------------------------------
  alpha Z        PSCENC =        98.01002871
  Ewald energy   TEWEN  =    103454.23532293
  -Hartree energ DENC   =   -109885.67121354
  -exchange      EXHF   =         0.00000000
  -V(xc)+E(xc)   XCENC  =       251.20924104
  PAW double counting   =      5857.83557193    -5798.45247575
  entropy T*S    EENTRO =         0.00000000
  eigenvalues    EBANDS =     -1299.03400958
  atomic energy  EATOM  =      7245.12686702
  Solvation  Ediel_sol  =         0.00000000
  ---------------------------------------------------
  free energy    TOTEN  =       -76.74066725 eV

  energy without entropy =      -76.74066725  energy(sigma->0) =      -76.74066725


--------------------------------------------------------------------------------------------------------




----------------------------------------- Iteration    1(   4)  ---------------------------------------


     EDDAV:  cpu time    6.2590: real time    6.2627
 BZINTS: Fermi energy:  0.458253; 78.000000 electrons
         Band energy:***********;  BLOECHL correction:  0.000000
       DOS:  cpu time    0.0040: real time    0.0036
    --------------------------------------------
      LOOP:  cpu time    6.2640: real time    6.2686

 eigenvalue-minimisations  :  7504
 total energy-change (2. order) :-0.1821773E+01  (-0.1820004E+01)
 number of electron      78.0000000 magnetization 
 augmentation part       78.0000000 magnetization 

 Free energy of the ion-electron system (eV)
  ---------------------------------------------------
  alpha Z        PSCENC =        98.01002871
  Ewald energy   TEWEN  =    103454.23532293
  -Hartree energ DENC   =   -109885.67121354
  -exchange      EXHF   =         0.00000000
  -V(xc)+E(xc)   XCENC  =       251.20924104
  PAW double counting   =      5857.83557193    -5798.45247575
  entropy T*S    EENTRO =         0.00000000
  eigenvalues    EBANDS =     -1300.85578214
  atomic energy  EATOM  =      7245.12686702
  Solvation  Ediel_sol  =         0.00000000
  ---------------------------------------------------
  free energy    TOTEN  =       -78.56243981 eV

  energy without entropy =      -78.56243981  energy(sigma->0) =      -78.56243981


--------------------------------------------------------------------------------------------------------




----------------------------------------- Iteration    1(   5)  ---------------------------------------


     EDDAV:  cpu time    5.0072: real time    5.0093
 BZINTS: Fermi energy:  0.349403; 78.000000 electrons
         Band energy:***********;  BLOECHL correction:  0.000000
       DOS:  cpu time    0.0030: real time    0.0035
    CHARGE:  cpu time    0.1750: real time    0.1754
    MIXING:  cpu time    0.0020: real time    0.0012
    --------------------------------------------
      LOOP:  cpu time    5.1882: real time    5.1921

 eigenvalue-minimisations  :  5880
 total energy-change (2. order) :-0.5867808E-02  (-0.5867200E-02)
 number of electron      77.9999998 magnetization 
 augmentation part       -5.4408718 magnetization 

 Broyden mixing:
  rms(total) = 0.18258E+01    rms(broyden)= 0.18246E+01
  rms(prec ) = 0.18719E+01
  weight for this iteration     100.00

 Free energy of the ion-electron system (eV)
  ---------------------------------------------------
  alpha Z        PSCENC =        98.01002871
  Ewald energy   TEWEN  =    103454.23532293
  -Hartree energ DENC   =   -109885.67121354
  -exchange      EXHF   =         0.00000000
  -V(xc)+E(xc)   XCENC  =       251.20924104
  PAW double counting   =      5857.83557193    -5798.45247575
  entropy T*S    EENTRO =         0.00000000
  eigenvalues    EBANDS =     -1300.86164995
  atomic energy  EATOM  =      7245.12686702
  Solvation  Ediel_sol  =         0.00000000
  ---------------------------------------------------
  free energy    TOTEN  =       -78.56830762 eV

  energy without entropy =      -78.56830762  energy(sigma->0) =      -78.56830762


--------------------------------------------------------------------------------------------------------




----------------------------------------- Iteration    1(   6)  ---------------------------------------


    POTLOK:  cpu time    0.0300: real time    0.0301
    SETDIJ:  cpu time    0.0060: real time    0.0068
     EDDAV:  cpu time    5.7941: real time    5.7980
 BZINTS: Fermi energy: -1.424287; 78.000000 electrons
         Band energy:***********;  BLOECHL correction:  0.000000
       DOS:  cpu time    0.0040: real time    0.0040
    CHARGE:  cpu time    0.1740: real time    0.1733
    MIXING:  cpu time    0.0010: real time    0.0011
    --------------------------------------------
      LOOP:  cpu time    6.0091: real time    6.0157

 eigenvalue-minimisations  :  6944
 total energy-change (2. order) : 0.8292588E+01  (-0.1044733E+02)
 number of electron      78.0000001 magnetization 
 augmentation part       -3.9382036 magnetization 

 Broyden mixing:
  rms(total) = 0.96962E+00    rms(broyden)= 0.96915E+00
  rms(prec ) = 0.10042E+01
  weight for this iteration     100.00

 eigenvalues of (default mixing * dielectric matrix)
  average eigenvalue GAMMA=   0.7213
  0.7213

 Free energy of the ion-electron system (eV)
  ---------------------------------------------------
  alpha Z        PSCENC =        98.01002871
  Ewald energy   TEWEN  =    103454.23532293
  -Hartree energ DENC   =   -109720.20337788
  -exchange      EXHF   =         0.00000000
  -V(xc)+E(xc)   XCENC  =       247.68788150
  PAW double counting   =      5611.18688534    -5555.70446342
  entropy T*S    EENTRO =         0.00000000
  eigenvalues    EBANDS =     -1450.61486402
  atomic energy  EATOM  =      7245.12686702
  Solvation  Ediel_sol  =         0.00000000
  ---------------------------------------------------
  free energy    TOTEN  =       -70.27571982 eV

  energy without entropy =      -70.27571982  energy(sigma->0) =      -70.27571982


--------------------------------------------------------------------------------------------------------




----------------------------------------- Iteration    1(   7)  ---------------------------------------


    POTLOK:  cpu time    0.0330: real time    0.0330
    SETDIJ:  cpu time    0.0070: real time    0.0068
     EDDAV:  cpu time    6.0991: real time    6.1043
 BZINTS: Fermi energy: -0.666382; 78.000000 electrons
         Band energy:***********;  BLOECHL correction:  0.000000
       DOS:  cpu time    0.0030: real time    0.0036
    CHARGE:  cpu time    0.1750: real time    0.1744
    MIXING:  cpu time    0.0010: real time    0.0011
    --------------------------------------------
      LOOP:  cpu time    6.3190: real time    6.3293

 eigenvalue-minimisations  :  7308
 total energy-change (2. order) : 0.2348073E+01  (-0.2385131E+01)
 number of electron      78.0000000 magnetization 
 augmentation part       -4.5849628 magnetization 

 Broyden mixing:
  rms(total) = 0.50346E+00    rms(broyden)= 0.50327E+00
  rms(prec ) = 0.50752E+00
  weight for this iteration     100.00

 eigenvalues of (default mixing * dielectric matrix)
  average eigenvalue GAMMA=   1.5953
  2.5795  0.6112

 Free energy of the ion-electron system (eV)
  ---------------------------------------------------
  alpha Z        PSCENC =        98.01002871
  Ewald energy   TEWEN  =    103454.23532293
  -Hartree energ DENC   =   -109799.37996211
  -exchange      EXHF   =         0.00000000
  -V(xc)+E(xc)   XCENC  =       248.70278806
  PAW double counting   =      5774.11531031    -5716.73851825
  entropy T*S    EENTRO =         0.00000000
  eigenvalues    EBANDS =     -1371.99948390
  atomic energy  EATOM  =      7245.12686702
  Solvation  Ediel_sol  =         0.00000000
  ---------------------------------------------------
  free energy    TOTEN  =       -67.92764724 eV

  energy without entropy =      -67.92764724  energy(sigma->0) =      -67.92764724


--------------------------------------------------------------------------------------------------------




----------------------------------------- Iteration    1(   8)  ---------------------------------------


    POTLOK:  cpu time    0.0300: real time    0.0303
    SETDIJ:  cpu time    0.0070: real time    0.0067
     EDDAV:  cpu time    6.1091: real time    6.1149
 BZINTS: Fermi energy: -0.941112; 78.000000 electrons
         Band energy:***********;  BLOECHL correction:  0.000000
       DOS:  cpu time    0.0030: real time    0.0032
    CHARGE:  cpu time    0.1760: real time    0.1754
    MIXING:  cpu time    0.0010: real time    0.0011
    --------------------------------------------
      LOOP:  cpu time    6.3270: real time    6.3347

 eigenvalue-minimisations  :  6776
 total energy-change (2. order) : 0.1336078E+00  (-0.2967163E+00)
 number of electron      78.0000000 magnetization 
 augmentation part       -4.3760060 magnetization 

 Broyden mixing:
  rms(total) = 0.16267E+00    rms(broyden)= 0.16262E+00
  rms(prec ) = 0.16780E+00
  weight for this iteration     100.00

 eigenvalues of (default mixing * dielectric matrix)
  average eigenvalue GAMMA=   1.3531
  0.5797  1.1022  2.3774

 Free energy of the ion-electron system (eV)
  ---------------------------------------------------
  alpha Z        PSCENC =        98.01002871
  Ewald energy   TEWEN  =    103454.23532293
  -Hartree energ DENC   =   -109780.49580134
  -exchange      EXHF   =         0.00000000
  -V(xc)+E(xc)   XCENC  =       247.99331232
  PAW double counting   =      5759.65048813    -5702.28086020
  entropy T*S    EENTRO =         0.00000000
  eigenvalues    EBANDS =     -1390.03339702
  atomic energy  EATOM  =      7245.12686702
  Solvation  Ediel_sol  =         0.00000000
  ---------------------------------------------------
  free energy    TOTEN  =       -67.79403944 eV

  energy without entropy =      -67.79403944  energy(sigma->0) =      -67.79403944


--------------------------------------------------------------------------------------------------------




----------------------------------------- Iteration    1(   9)  ---------------------------------------


    POTLOK:  cpu time    0.0320: real time    0.0417
    SETDIJ:  cpu time    0.0070: real time    0.0069
     EDDAV:  cpu time    5.7831: real time    6.2636
 BZINTS: Fermi energy: -0.642995; 78.000000 electrons
         Band energy:***********;  BLOECHL correction:  0.000000
       DOS:  cpu time    0.0030: real time    0.0036
    CHARGE:  cpu time    0.1720: real time    0.1872
    MIXING:  cpu time    0.0010: real time    0.0012
    --------------------------------------------
      LOOP:  cpu time    5.9981: real time    6.5092

 eigenvalue-minimisations  :  6888
 total energy-change (2. order) : 0.8007223E-01  (-0.4772779E-01)
 number of electron      78.0000000 magnetization 
 augmentation part       -4.4844006 magnetization 

 Broyden mixing:
  rms(total) = 0.37414E-01    rms(broyden)= 0.37373E-01
  rms(prec ) = 0.37822E-01
  weight for this iteration     100.00

 eigenvalues of (default mixing * dielectric matrix)
  average eigenvalue GAMMA=   1.3709
  2.5105  1.4898  0.5789  0.9046

 Free energy of the ion-electron system (eV)
  ---------------------------------------------------
  alpha Z        PSCENC =        98.01002871
  Ewald energy   TEWEN  =    103454.23532293
  -Hartree energ DENC   =   -109794.64346150
  -exchange      EXHF   =         0.00000000
  -V(xc)+E(xc)   XCENC  =       248.27908735
  PAW double counting   =      5783.63676309    -5725.95408854
  entropy T*S    EENTRO =         0.00000000
  eigenvalues    EBANDS =     -1376.40448626
  atomic energy  EATOM  =      7245.12686702
  Solvation  Ediel_sol  =         0.00000000
  ---------------------------------------------------
  free energy    TOTEN  =       -67.71396722 eV

  energy without entropy =      -67.71396722  energy(sigma->0) =      -67.71396722


--------------------------------------------------------------------------------------------------------




----------------------------------------- Iteration    1(  10)  ---------------------------------------


    POTLOK:  cpu time    0.0320: real time    0.0332
    SETDIJ:  cpu time    0.0070: real time    0.0069
     EDDAV:  cpu time    4.7523: real time    5.0177
 BZINTS: Fermi energy: -0.624990; 78.000000 electrons
         Band energy:***********;  BLOECHL correction:  0.000000
       DOS:  cpu time    0.0040: real time    0.0036
    CHARGE:  cpu time    0.1740: real time    0.1754
    MIXING:  cpu time    0.0010: real time    0.0011
    --------------------------------------------
      LOOP:  cpu time    4.9702: real time    5.2404

 eigenvalue-minimisations  :  5544
 total energy-change (2. order) :-0.2871878E-05  (-0.2709970E-02)
 number of electron      78.0000000 magnetization 
 augmentation part       -4.4937875 magnetization 

 Broyden mixing:
  rms(total) = 0.15713E-01    rms(broyden)= 0.15705E-01
  rms(prec ) = 0.16134E-01
  weight for this iteration     100.00

 eigenvalues of (default mixing * dielectric matrix)
  average eigenvalue GAMMA=   1.3442
  2.6064  1.7022  1.0657  0.5810  0.7655

 Free energy of the ion-electron system (eV)
  ---------------------------------------------------
  alpha Z        PSCENC =        98.01002871
  Ewald energy   TEWEN  =    103454.23532293
  -Hartree energ DENC   =   -109796.64812819
  -exchange      EXHF   =         0.00000000
  -V(xc)+E(xc)   XCENC  =       248.34167496
  PAW double counting   =      5786.74642929    -5729.00017047
  entropy T*S    EENTRO =         0.00000000
  eigenvalues    EBANDS =     -1374.52599433
  atomic energy  EATOM  =      7245.12686702
  Solvation  Ediel_sol  =         0.00000000
  ---------------------------------------------------
  free energy    TOTEN  =       -67.71397009 eV

  energy without entropy =      -67.71397009  energy(sigma->0) =      -67.71397009


--------------------------------------------------------------------------------------------------------




----------------------------------------- Iteration    1(  11)  ---------------------------------------


    POTLOK:  cpu time    0.0300: real time    0.0303
    SETDIJ:  cpu time    0.0070: real time    0.0068
     EDDAV:  cpu time    5.2702: real time    5.4275
 BZINTS: Fermi energy: -0.599582; 78.000000 electrons
         Band energy:***********;  BLOECHL correction:  0.000000
       DOS:  cpu time    0.0030: real time    0.0036
    CHARGE:  cpu time    0.1720: real time    0.1765
    MIXING:  cpu time    0.0010: real time    0.0011
    --------------------------------------------
      LOOP:  cpu time    5.4842: real time    5.6518

 eigenvalue-minimisations  :  6188
 total energy-change (2. order) : 0.4400057E-03  (-0.5108845E-03)
 number of electron      78.0000000 magnetization 
 augmentation part       -4.4892572 magnetization 

 Broyden mixing:
  rms(total) = 0.62777E-02    rms(broyden)= 0.62736E-02
  rms(prec ) = 0.65849E-02
  weight for this iteration     100.00

 eigenvalues of (default mixing * dielectric matrix)
  average eigenvalue GAMMA=   1.3165
  2.4700  1.6173  1.6173  0.9859  0.5815  0.6270

 Free energy of the ion-electron system (eV)
  ---------------------------------------------------
  alpha Z        PSCENC =        98.01002871
  Ewald energy   TEWEN  =    103454.23532293
  -Hartree energ DENC   =   -109798.40847413
  -exchange      EXHF   =         0.00000000
  -V(xc)+E(xc)   XCENC  =       248.34474036
  PAW double counting   =      5784.73183508    -5727.00053572
  entropy T*S    EENTRO =         0.00000000
  eigenvalues    EBANDS =     -1372.75331433
  atomic energy  EATOM  =      7245.12686702
  Solvation  Ediel_sol  =         0.00000000
  ---------------------------------------------------
  free energy    TOTEN  =       -67.71353008 eV

  energy without entropy =      -67.71353008  energy(sigma->0) =      -67.71353008


--------------------------------------------------------------------------------------------------------




----------------------------------------- Iteration    1(  12)  ---------------------------------------


    POTLOK:  cpu time    0.0300: real time    0.0335
    SETDIJ:  cpu time    0.0070: real time    0.0069
     EDDAV:  cpu time    5.3002: real time    5.3177
 BZINTS: Fermi energy: -0.584294; 78.000000 electrons
         Band energy:***********;  BLOECHL correction:  0.000000
       DOS:  cpu time    0.0040: real time    0.0036
    CHARGE:  cpu time    0.1960: real time    0.1966
    MIXING:  cpu time    0.0020: real time    0.0012
    --------------------------------------------
      LOOP:  cpu time    5.5402: real time    5.5625

 eigenvalue-minimisations  :  5656
 total energy-change (2. order) : 0.1202835E-03  (-0.8278816E-04)
 number of electron      78.0000000 magnetization 
 augmentation part       -4.4879660 magnetization 

 Broyden mixing:
  rms(total) = 0.30931E-02    rms(broyden)= 0.30924E-02
  rms(prec ) = 0.33131E-02
  weight for this iteration     100.00

 eigenvalues of (default mixing * dielectric matrix)
  average eigenvalue GAMMA=   1.3647
  2.4328  2.4328  1.2835  1.2835  0.9144  0.5823  0.6238

 Free energy of the ion-electron system (eV)
  ---------------------------------------------------
  alpha Z        PSCENC =        98.01002871
  Ewald energy   TEWEN  =    103454.23532293
  -Hartree energ DENC   =   -109799.64337355
  -exchange      EXHF   =         0.00000000
  -V(xc)+E(xc)   XCENC  =       248.33902935
  PAW double counting   =      5782.67506184    -5724.96407087
  entropy T*S    EENTRO =         0.00000000
  eigenvalues    EBANDS =     -1371.49227521
  atomic energy  EATOM  =      7245.12686702
  Solvation  Ediel_sol  =         0.00000000
  ---------------------------------------------------
  free energy    TOTEN  =       -67.71340980 eV

  energy without entropy =      -67.71340980  energy(sigma->0) =      -67.71340980


--------------------------------------------------------------------------------------------------------




----------------------------------------- Iteration    1(  13)  ---------------------------------------


    POTLOK:  cpu time    0.0320: real time    0.0326
    SETDIJ:  cpu time    0.0070: real time    0.0068
     EDDAV:  cpu time    5.6171: real time    5.6234
 BZINTS: Fermi energy: -0.566476; 78.000000 electrons
         Band energy:***********;  BLOECHL correction:  0.000000
       DOS:  cpu time    0.0030: real time    0.0036
    CHARGE:  cpu time    0.1810: real time    0.1798
    MIXING:  cpu time    0.0010: real time    0.0012
    --------------------------------------------
      LOOP:  cpu time    5.8421: real time    5.8503

 eigenvalue-minimisations  :  6048
 total energy-change (2. order) : 0.3392253E-04  (-0.1578205E-04)
 number of electron      78.0000000 magnetization 
 augmentation part       -4.4886731 magnetization 

 Broyden mixing:
  rms(total) = 0.14141E-02    rms(broyden)= 0.14135E-02
  rms(prec ) = 0.16317E-02
  weight for this iteration     100.00

 eigenvalues of (default mixing * dielectric matrix)
  average eigenvalue GAMMA=   1.4010
  2.7570  2.4614  1.4848  1.4848  0.9045  0.9045  0.5813  0.6300

 Free energy of the ion-electron system (eV)
  ---------------------------------------------------
  alpha Z        PSCENC =        98.01002871
  Ewald energy   TEWEN  =    103454.23532293
  -Hartree energ DENC   =   -109801.17510513
  -exchange      EXHF   =         0.00000000
  -V(xc)+E(xc)   XCENC  =       248.34567430
  PAW double counting   =      5781.63745293    -5723.92690846
  entropy T*S    EENTRO =         0.00000000
  eigenvalues    EBANDS =     -1369.96670817
  atomic energy  EATOM  =      7245.12686702
  Solvation  Ediel_sol  =         0.00000000
  ---------------------------------------------------
  free energy    TOTEN  =       -67.71337588 eV

  energy without entropy =      -67.71337588  energy(sigma->0) =      -67.71337588


--------------------------------------------------------------------------------------------------------




----------------------------------------- Iteration    1(  14)  ---------------------------------------


    POTLOK:  cpu time    0.0320: real time    0.0317
    SETDIJ:  cpu time    0.0070: real time    0.0069
     EDDAV:  cpu time    5.2252: real time    5.2289
 BZINTS: Fermi energy: -0.552457; 78.000000 electrons
         Band energy:***********;  BLOECHL correction:  0.000000
       DOS:  cpu time    0.0030: real time    0.0036
    CHARGE:  cpu time    0.1780: real time    0.1778
    MIXING:  cpu time    0.0010: real time    0.0013
    --------------------------------------------
      LOOP:  cpu time    5.4462: real time    5.4526

 eigenvalue-minimisations  :  6132
 total energy-change (2. order) :-0.9514766E-05  (-0.3655676E-05)
 number of electron      78.0000000 magnetization 
[...]
      LOOP:  cpu time    5.0882: real time    5.0928

 Broyden mixing:
  rms(total) = 0.23356E-05    rms(broyden)= 0.23345E-05
  rms(prec ) = 0.31196E-05
  weight for this iteration     100.00

 eigenvalues of (default mixing * dielectric matrix)
  average eigenvalue GAMMA=   2.1283
  8.1110  6.7883  3.9084  3.9084  2.6232  2.6232  1.8497  1.8497  1.3557  1.3557
  1.1499  1.0248  0.8757  0.8757  0.8518  0.5863  0.7866  0.7450  0.6033  0.6938

 Free energy of the ion-electron system (eV)
  ---------------------------------------------------
  -Hartree energ DENC   =        -0.43620899
  -V(xc)+E(xc)   XCENC  =         0.00533577
  PAW double counting   =         0.01385438       -0.01387085
  entropy T*S    EENTRO =         0.00000000
  eigenvalues    EBANDS =        -0.12397770
  ---------------------------------------------------
  free energy    TOTEN  =        -0.55486739 eV

  energy without entropy =       -0.55486739


----------------------------------------- Iteration    3(  23)  ---------------------------------------


   POT+DIJ:  cpu time    0.0790: real time    0.0801
    HAMIL1:  cpu time    0.9069: real time    0.9085
    LRDIAG:  cpu time    0.1320: real time    0.1314
    LRDIIS:  cpu time    3.3345: real time    3.3349
    LRDIAG:  cpu time    0.1250: real time    0.1252
    MIXING:  cpu time    0.0030: real time    0.0026
    --------------------------------------------
      LOOP:  cpu time    5.0332: real time    5.0369

 Broyden mixing:
  rms(total) = 0.18318E-05    rms(broyden)= 0.18314E-05
  rms(prec ) = 0.24109E-05
  weight for this iteration     100.00

 eigenvalues of (default mixing * dielectric matrix)
  average eigenvalue GAMMA=   2.1350
  8.1531  6.9736  4.0941  4.0941  2.7370  2.7370  2.0223  2.0223  1.5482  1.3110
  1.3110  1.0435  0.8782  0.8782  0.8796  0.8796  0.7455  0.5863  0.7191  0.6041
  0.6165

 Free energy of the ion-electron system (eV)
  ---------------------------------------------------
  -Hartree energ DENC   =        -0.43620829
  -V(xc)+E(xc)   XCENC  =         0.00533565
  PAW double counting   =         0.01385536       -0.01387183
  entropy T*S    EENTRO =         0.00000000
  eigenvalues    EBANDS =        -0.12392988
  ---------------------------------------------------
  free energy    TOTEN  =        -0.55481898 eV

  energy without entropy =       -0.55481898


----------------------------------------- Iteration    3(  24)  ---------------------------------------


   POT+DIJ:  cpu time    0.0800: real time    0.0803
    HAMIL1:  cpu time    0.9149: real time    0.9150
    LRDIAG:  cpu time    0.1310: real time    0.1310
    LRDIIS:  cpu time    3.2845: real time    3.2853
    LRDIAG:  cpu time    0.1240: real time    0.1247
    MIXING:  cpu time    0.0020: real time    0.0026
    --------------------------------------------
      LOOP:  cpu time    4.9812: real time    4.9846

 Broyden mixing:
  rms(total) = 0.11094E-05    rms(broyden)= 0.11092E-05
  rms(prec ) = 0.14991E-05
  weight for this iteration     100.00

 eigenvalues of (default mixing * dielectric matrix)
  average eigenvalue GAMMA=   2.1782
  8.0707  7.2647  4.3595  4.3595  2.9085  2.9085  2.1694  2.1694  1.6367  1.6367
  1.3089  1.3089  0.9700  0.9700  0.8731  0.8731  0.8681  0.7464  0.5863  0.7168
  0.6036  0.6121

 Free energy of the ion-electron system (eV)
  ---------------------------------------------------
  -Hartree energ DENC   =        -0.43621005
  -V(xc)+E(xc)   XCENC  =         0.00533558
  PAW double counting   =         0.01385434       -0.01387081
  entropy T*S    EENTRO =         0.00000000
  eigenvalues    EBANDS =        -0.12389628
  ---------------------------------------------------
  free energy    TOTEN  =        -0.55478722 eV

  energy without entropy =       -0.55478722


----------------------------------------- Iteration    3(  25)  ---------------------------------------


   POT+DIJ:  cpu time    0.0800: real time    0.0806
    HAMIL1:  cpu time    0.9129: real time    0.9131
    LRDIAG:  cpu time    0.1310: real time    0.1311
    LRDIIS:  cpu time    3.2045: real time    3.2307
    LRDIAG:  cpu time    0.1290: real time    0.1296
    MIXING:  cpu time    0.0020: real time    0.0027
    --------------------------------------------
      LOOP:  cpu time    4.9113: real time    4.9419

 Broyden mixing:
  rms(total) = 0.12137E-05    rms(broyden)= 0.12134E-05
  rms(prec ) = 0.13275E-05
  weight for this iteration     100.00

 eigenvalues of (default mixing * dielectric matrix)
  average eigenvalue GAMMA=   2.2274
  7.8971  7.8971  4.8496  4.8496  3.1139  3.1139  2.2582  2.2582  1.7572  1.7572
  1.3007  1.3007  1.0395  1.0015  0.8750  0.8750  0.9368  0.8820  0.7464  0.5863
  0.7163  0.6033  0.6143

 Free energy of the ion-electron system (eV)
  ---------------------------------------------------
  -Hartree energ DENC   =        -0.43621155
  -V(xc)+E(xc)   XCENC  =         0.00533551
  PAW double counting   =         0.01385280       -0.01386926
  entropy T*S    EENTRO =         0.00000000
  eigenvalues    EBANDS =        -0.12389766
  ---------------------------------------------------
  free energy    TOTEN  =        -0.55479017 eV

  energy without entropy =       -0.55479017


----------------------------------------- Iteration    3(  26)  ---------------------------------------


   POT+DIJ:  cpu time    0.0800: real time    0.0808
    HAMIL1:  cpu time    0.9089: real time    0.9092
    LRDIAG:  cpu time    0.1310: real time    0.1310
    LRDIIS:  cpu time    2.9226: real time    2.9243
    LRDIAG:  cpu time    0.1250: real time    0.1252
    MIXING:  cpu time    0.0020: real time    0.0027
    --------------------------------------------
      LOOP:  cpu time    4.6243: real time    4.6290

 Broyden mixing:
  rms(total) = 0.35995E-06    rms(broyden)= 0.35977E-06
  rms(prec ) = 0.41981E-06
  weight for this iteration     100.00

 eigenvalues of (default mixing * dielectric matrix)
  average eigenvalue GAMMA=   2.3007
  8.2642  8.2642  5.4815  4.9753  3.2431  3.2431  2.4695  2.4695  1.9162  1.9162
  1.4676  1.3157  1.3157  1.0713  0.9601  0.9601  0.8734  0.8734  0.8694  0.7465
  0.5863  0.7165  0.6034  0.6146

 Free energy of the ion-electron system (eV)
  ---------------------------------------------------
  -Hartree energ DENC   =        -0.43621025
  -V(xc)+E(xc)   XCENC  =         0.00533541
  PAW double counting   =         0.01385414       -0.01387062
  entropy T*S    EENTRO =         0.00000000
  eigenvalues    EBANDS =        -0.12387378
  ---------------------------------------------------
  free energy    TOTEN  =        -0.55476510 eV

  energy without entropy =       -0.55476510


------------------------ aborting loop because EDIFF is reached ----------------------------------------


 change of polarisation eV/A/(eV/A) component  3 :     0.000     0.000     1.089
 dielectric tensor                  component  3 :     0.000     0.000     1.449


--------------------------------------------------------------------------------------------------------


    FORLOC:  cpu time    0.0020: real time    0.0025
    FORNL :  cpu time    0.8779: real time    0.8779
    STRESS:  cpu time    3.4915: real time    3.4918
    FORCOR:  cpu time    0.0310: real time    0.0309
    OFIELD:  cpu time    0.0000: real time    0.0002

  Hirshfeld charges:
            ion         q(e)     
   ------------------------------
      1     Mo          0.374
      2     Mo          0.372
      3     Mo          0.374
      4     S          -0.186
      5     S          -0.187
      6     S          -0.186
      7     S          -0.186
      8     S          -0.187
      9     S          -0.186

  Tkatchenko/Scheffler method for vdW energy calculation
  ---------------------------------------------------------------------------------------------

  Parameters of vdW forcefield:
            C6ts              R0ts           ALPHAts        RELVOL
            (au)              (au)            (au)                
   ---------------------------------------------------------------
   Mo       1059.773          4.121         89.744          1.015
   Mo       1070.530          4.128         90.198          1.020
   Mo       1059.773          4.121         89.744          1.015
   S         136.635          3.868         19.792          1.010
   S         133.851          3.854         19.589          0.999
   S         136.633          3.868         19.792          1.010
   S         136.633          3.868         19.792          1.010
   S         133.851          3.854         19.589          0.999
   S         136.635          3.868         19.792          1.010
  Edisp (eV):   -2.51991
    FORVDW:  cpu time    0.3979: real time    0.3977
    FORLOC:  cpu time    0.0030: real time    0.0025
    FORNL :  cpu time    0.8819: real time    0.8820
    STRESS:  cpu time    3.4985: real time    3.4987
    FORCOR:  cpu time    0.0310: real time    0.0309
    OFIELD:  cpu time    0.0000: real time    0.0003

  Hirshfeld charges:
            ion         q(e)     
   ------------------------------
      1     Mo          0.374
      2     Mo          0.372
      3     Mo          0.374
      4     S          -0.186
      5     S          -0.187
      6     S          -0.186
      7     S          -0.186
      8     S          -0.187
      9     S          -0.186

  Tkatchenko/Scheffler method for vdW energy calculation
  ---------------------------------------------------------------------------------------------

  Parameters of vdW forcefield:
            C6ts              R0ts           ALPHAts        RELVOL
            (au)              (au)            (au)                
   ---------------------------------------------------------------
   Mo       1059.773          4.121         89.744          1.015
   Mo       1070.530          4.128         90.198          1.020
   Mo       1059.773          4.121         89.744          1.015
   S         136.635          3.868         19.792          1.010
   S         133.851          3.854         19.589          0.999
   S         136.633          3.868         19.792          1.010
   S         136.633          3.868         19.792          1.010
   S         133.851          3.854         19.589          0.999
   S         136.635          3.868         19.792          1.010
  Edisp (eV):   -2.51991
    FORVDW:  cpu time    0.3979: real time    0.3978
    FORNLD:  cpu time    2.8616: real time    2.8616

 PIEZOELECTRIC TENSOR FIELD DIRECTION 3  (e Angst)
 -----------------------------------------------------------------------------
    -0.00001 -0.00000 -0.00000           (  0.00000 -0.00000 -0.00000)
     0.00000 -0.00001 -0.00000           (  0.00000  0.00000 -0.00000)
     0.00000  0.00000 -0.00001           ( -0.00000 -0.00000  0.00000)

 PIEZOELECTRIC TENSOR FIELD DIRECTION 3  (C/m^2)
 -----------------------------------------------------------------------------
    -0.00000 -0.00000 -0.00000
     0.00000 -0.00000 -0.00000
     0.00000  0.00000 -0.00000


      POSITION         DIRECTION 3           BORN EFFECTIVE CHARGE    (rigid.aug.   ionic)
 -----------------------------------------------------------------------------------------
     -0.00000      0.91916     18.85000     0.00000  0.00000-17.01883 (  0.17438 14.00000)
      1.59203      1.83832     25.00000     0.00000 -0.00000 -0.09691 (  0.17426 14.00000)
     -0.00000      0.91916     31.15000    -0.00000  0.00000-17.01881 (  0.17438 14.00000)
      1.59203      1.83832     20.41356    -0.00000  0.00000 -0.27877 (  0.66111  6.00000)
      1.59203      1.83832     17.28644    -0.00000  0.00000  0.10656 (  0.66041  6.00000)
     -0.00000      0.91916     26.56356    -0.00000  0.00000  0.10428 (  0.66112  6.00000)
     -0.00000      0.91916     23.43644    -0.00000  0.00000  0.10428 (  0.66112  6.00000)
      1.59203      1.83832     32.71356     0.00000 -0.00000  0.10656 (  0.66041  6.00000)
      1.59203      1.83832     29.58644    -0.00000  0.00000 -0.27877 (  0.66111  6.00000)
 -----------------------------------------------------------------------------------------
    total drift (improves with k-points):  -0.00000  0.00000-34.27042




--------------------------------------------------------------------------------------------------------


  LATTYP: Found a hexagonal cell.
 ALAT       =     3.1840664647
 C/A-ratio  =    15.7031897903
  
  Lattice vectors:
  
 A1 = (   3.1840664647,   0.0000000000,   0.0000000000)
 A2 = (  -1.5920332323,   2.7574824458,   0.0000000000)
 A3 = (   0.0000000000,   0.0000000000,  50.0000000000)


Analysis of symmetry for initial positions (statically):
=====================================================================
 Subroutine PRICEL returns:
 Original cell was already a primitive cell.
 

 Routine SETGRP: Setting up the symmetry group for a 
 hexagonal supercell.


 Subroutine GETGRP returns: Found 12 space group operations
 (whereof  4 operations were pure point group operations)
 out of a pool of 24 trial point group operations.


The static configuration has the point symmetry C_2v.
 The point group associated with its full space group is D_3h.


Analysis of symmetry for dynamics (positions and initial velocities):
=====================================================================
 Subroutine PRICEL returns:
 Original cell was already a primitive cell.
 

 Routine SETGRP: Setting up the symmetry group for a 
 hexagonal supercell.


 Subroutine GETGRP returns: Found 12 space group operations
 (whereof  4 operations were pure point group operations)
 out of a pool of 24 trial point group operations.


The dynamic configuration has the point symmetry C_2v.
 The point group associated with its full space group is D_3h.


 Subroutine INISYM returns: Found 12 space group operations
 (whereof  4 operations are pure point group operations),
 and found     1 'primitive' translations



 MACROSCOPIC STATIC DIELECTRIC TENSOR (including local field effects in DFT)
 ------------------------------------------------------
           6.294665     0.000000    -0.000000
          -0.000000     6.294665     0.000000
           0.000000    -0.000000     1.448976
 ------------------------------------------------------



--------------------------------------------------------------------------------------------------------


  LATTYP: Found a hexagonal cell.
 ALAT       =     3.1840664647
 C/A-ratio  =    15.7031897903
  
  Lattice vectors:
  
 A1 = (   3.1840664647,   0.0000000000,   0.0000000000)
 A2 = (  -1.5920332323,   2.7574824458,   0.0000000000)
 A3 = (   0.0000000000,   0.0000000000,  50.0000000000)


Analysis of symmetry for initial positions (statically):
=====================================================================
 Subroutine PRICEL returns:
 Original cell was already a primitive cell.
 

 Routine SETGRP: Setting up the symmetry group for a 
 hexagonal supercell.


 Subroutine GETGRP returns: Found 12 space group operations
 (whereof  4 operations were pure point group operations)
 out of a pool of 24 trial point group operations.


The static configuration has the point symmetry C_2v.
 The point group associated with its full space group is D_3h.


Analysis of symmetry for dynamics (positions and initial velocities):
=====================================================================
 Subroutine PRICEL returns:
 Original cell was already a primitive cell.
 

 Routine SETGRP: Setting up the symmetry group for a 
 hexagonal supercell.


 Subroutine GETGRP returns: Found 12 space group operations
 (whereof  4 operations were pure point group operations)
 out of a pool of 24 trial point group operations.


The dynamic configuration has the point symmetry C_2v.
 The point group associated with its full space group is D_3h.


 Subroutine INISYM returns: Found 12 space group operations
 (whereof  4 operations are pure point group operations),
 and found     1 'primitive' translations



--------------------------------------------------------------------------------------------------------




 MACROSCOPIC STATIC DIELECTRIC TENSOR (including local field effects in DFT)
 ------------------------------------------------------
           6.294665     0.000000    -0.000000
          -0.000000     6.294665     0.000000
           0.000000    -0.000000     1.448976
 ------------------------------------------------------


 PIEZOELECTRIC TENSOR  for field in x, y, z        (e  Angst)
          XX          YY          ZZ          XY          YZ          ZX
  --------------------------------------------------------------------------------
  x    -0.00720     0.00613     0.00012    -1.70169     0.00000     0.00000
  y    -1.70870     1.71188     0.00012     0.00000     0.00000     0.00000
  z    -0.00001    -0.00001    -0.00001     0.00000     0.00000    -0.00000

 PIEZOELECTRIC TENSOR  for field in x, y, z        (C/m^2)
          XX          YY          ZZ          XY          YZ          ZX
  --------------------------------------------------------------------------------
  x     0.00000     0.00000     0.00000    -0.06226     0.00000     0.00000
  y    -0.06226     0.06226     0.00000     0.00000     0.00000     0.00000
  z     0.00000     0.00000     0.00000     0.00000     0.00000    -0.00000
 
 BORN EFFECTIVE CHARGES (in e, cummulative output)
 -------------------------------------------------
 ion    1
    1    -0.98416    -0.00075    -0.00000
    2    -0.00000    -0.98473     0.00000
    3     0.00000     0.00000   -17.01883
 ion    2
    1    -0.97566     0.00077     0.00000
    2    -0.00000    -0.97510     0.00000
    3     0.00000    -0.00000    -0.09691
 ion    3
    1    -0.98416    -0.00075     0.00000
    2    -0.00000    -0.98473    -0.00000
    3    -0.00000     0.00000   -17.01881
 ion    4
    1     0.47778    -0.00025    -0.00020
    2    -0.00000     0.47817     0.00050
    3    -0.00000     0.00000    -0.27877
 ion    5
    1     0.50097    -0.00026     0.00013
    2     0.00000     0.50130    -0.00035
    3    -0.00000     0.00000     0.10656
 ion    6
    1     0.48522     0.00026    -0.00020
    2    -0.00000     0.48479     0.00050
    3    -0.00000     0.00000     0.10428
 ion    7
    1     0.48522     0.00026     0.00020
    2    -0.00000     0.48479    -0.00050
    3    -0.00000     0.00000     0.10428
 ion    8
    1     0.50097    -0.00026    -0.00013
    2     0.00000     0.50130     0.00035
    3     0.00000    -0.00000     0.10656
 ion    9
    1     0.47778    -0.00025     0.00020
    2    -0.00000     0.47817    -0.00050
    3    -0.00000     0.00000    -0.27877


--------------------------------------------------------------------------------------------------------


 writing wavefunctions
     LOOP+:  cpu time 1362.7628: real time 1367.6548
    4ORBIT:  cpu time    0.0000: real time    0.0000
 BZINTS: Fermi energy: -0.510832; 78.000000 electrons
         Band energy:***********;  BLOECHL correction:  0.000000

 total amount of memory used by VASP on root node   206720. kBytes
========================================================================

   base      :      30000. kBytes
   nonl-proj :     157922. kBytes
   fftplans  :       2116. kBytes
   grid      :       8000. kBytes
   one-center:        726. kBytes
   wavefun   :       7956. kBytes
 
  
  
 General timing and accounting informations for this job:
 ========================================================
  
                  Total CPU time used (sec):     1365.322
                            User time (sec):     1333.982
                          System time (sec):       31.340
                         Elapsed time (sec):     1371.549
  
                   Maximum memory used (kb):      955512.
                   Average memory used (kb):           0.
  
                          Minor page faults:      7236662
                          Major page faults:           11
                 Voluntary context switches:         4841
