  18  18   0   0
  0.3027238E+02  0.3547392E-09  0.3547392E-09  0.5000000E-08  0.5000000E-15
  1.000000000000000E-004
  CAR 
 unknown system                          
     16.88170017    -58.40742230  301      5.96477741      1.00000000
    -58.407  0.0000E+00  0.0000E+00
    -58.156  0.0000E+00  0.0000E+00
    -57.905  0.0000E+00  0.0000E+00
    -57.655  0.0000E+00  0.0000E+00
    -57.404  0.0000E+00  0.0000E+00
    -57.153  0.0000E+00  0.0000E+00
    -56.902  0.0000E+00  0.0000E+00
    -56.651  0.0000E+00  0.0000E+00
    -56.400  0.0000E+00  0.0000E+00
    -56.149  0.0000E+00  0.0000E+00
    -55.898  0.0000E+00  0.0000E+00
    -55.647  0.0000E+00  0.0000E+00
    -55.396  0.0000E+00  0.0000E+00
    -55.145  0.0000E+00  0.0000E+00
    -54.894  0.0000E+00  0.1200E+02
    -54.643  0.0000E+00  0.1200E+02
    -54.392  0.0000E+00  0.1200E+02
    -54.141  0.0000E+00  0.1200E+02
    -53.890  0.0000E+00  0.1200E+02
    -53.639  0.0000E+00  0.1200E+02
    -53.388  0.0000E+00  0.1200E+02
    -53.137  0.0000E+00  0.1200E+02
    -52.886  0.0000E+00  0.1200E+02
    -52.635  0.0000E+00  0.1200E+02
    -52.384  0.0000E+00  0.1200E+02
    -52.133  0.0000E+00  0.1200E+02
    -51.882  0.0000E+00  0.1200E+02
    -51.631  0.0000E+00  0.1200E+02
    -51.380  0.0000E+00  0.1200E+02
    -51.129  0.0000E+00  0.1200E+02
    -50.879  0.0000E+00  0.1200E+02
    -50.628  0.0000E+00  0.1200E+02
    -50.377  0.0000E+00  0.1200E+02
    -50.126  0.0000E+00  0.1200E+02
    -49.875  0.0000E+00  0.1200E+02
    -49.624  0.0000E+00  0.1200E+02
    -49.373  0.0000E+00  0.1200E+02
    -49.122  0.0000E+00  0.1200E+02
    -48.871  0.0000E+00  0.1200E+02
    -48.620  0.0000E+00  0.1200E+02
    -48.369  0.0000E+00  0.1200E+02
    -48.118  0.0000E+00  0.1200E+02
    -47.867  0.0000E+00  0.1200E+02
    -47.616  0.0000E+00  0.1200E+02
    -47.365  0.0000E+00  0.1200E+02
    -47.114  0.0000E+00  0.1200E+02
    -46.863  0.0000E+00  0.1200E+02
    -46.612  0.0000E+00  0.1200E+02
    -46.361  0.0000E+00  0.1200E+02
    -46.110  0.0000E+00  0.1200E+02
    -45.859  0.0000E+00  0.1200E+02
    -45.608  0.0000E+00  0.1200E+02
    -45.357  0.0000E+00  0.1200E+02
    -45.106  0.0000E+00  0.1200E+02
    -44.855  0.0000E+00  0.1200E+02
    -44.604  0.0000E+00  0.1200E+02
    -44.353  0.0000E+00  0.1200E+02
    -44.102  0.0000E+00  0.1200E+02
    -43.852  0.0000E+00  0.1200E+02
    -43.601  0.0000E+00  0.1200E+02
    -43.350  0.0000E+00  0.1200E+02
    -43.099  0.0000E+00  0.1200E+02
    -42.848  0.0000E+00  0.1200E+02
    -42.597  0.0000E+00  0.1200E+02
    -42.346  0.0000E+00  0.1200E+02
    -42.095  0.0000E+00  0.1200E+02
    -41.844  0.0000E+00  0.1200E+02
    -41.593  0.0000E+00  0.1200E+02
    -41.342  0.0000E+00  0.1200E+02
    -41.091  0.0000E+00  0.1200E+02
    -40.840  0.0000E+00  0.1200E+02
    -40.589  0.0000E+00  0.1200E+02
    -40.338  0.0000E+00  0.1200E+02
    -40.087  0.0000E+00  0.1200E+02
    -39.836  0.0000E+00  0.1200E+02
    -39.585  0.0000E+00  0.1200E+02
    -39.334  0.0000E+00  0.1200E+02
    -39.083  0.0000E+00  0.1200E+02
    -38.832  0.0000E+00  0.1200E+02
    -38.581  0.0000E+00  0.1200E+02
    -38.330  0.0000E+00  0.1200E+02
    -38.079  0.0000E+00  0.1200E+02
    -37.828  0.0000E+00  0.1200E+02
    -37.577  0.0000E+00  0.1200E+02
    -37.326  0.0000E+00  0.1200E+02
    -37.076  0.0000E+00  0.1200E+02
    -36.825  0.0000E+00  0.1200E+02
    -36.574  0.0000E+00  0.1200E+02
    -36.323  0.0000E+00  0.1200E+02
    -36.072  0.0000E+00  0.1200E+02
    -35.821  0.0000E+00  0.1200E+02
    -35.570  0.0000E+00  0.1200E+02
    -35.319  0.0000E+00  0.1200E+02
    -35.068  0.0000E+00  0.1200E+02
    -34.817  0.0000E+00  0.1200E+02
    -34.566  0.0000E+00  0.1200E+02
    -34.315  0.0000E+00  0.1200E+02
    -34.064  0.0000E+00  0.1200E+02
    -33.813  0.0000E+00  0.1200E+02
    -33.562  0.0000E+00  0.1200E+02
    -33.311  0.0000E+00  0.1200E+02
    -33.060  0.0000E+00  0.1200E+02
    -32.809  0.0000E+00  0.1200E+02
    -32.558  0.0000E+00  0.1200E+02
    -32.307  0.0000E+00  0.1200E+02
    -32.056  0.0000E+00  0.1200E+02
    -31.805  0.0000E+00  0.1200E+02
    -31.554  0.0000E+00  0.1200E+02
    -31.303  0.0000E+00  0.1200E+02
    -31.052  0.0000E+00  0.1200E+02
    -30.801  0.0000E+00  0.1200E+02
    -30.550  0.0000E+00  0.1200E+02
    -30.299  0.0000E+00  0.1200E+02
    -30.049  0.0000E+00  0.1200E+02
    -29.798  0.0000E+00  0.1200E+02
    -29.547  0.0000E+00  0.1200E+02
    -29.296  0.0000E+00  0.1200E+02
    -29.045  0.3284E+03  0.4226E+02
    -28.794  0.0000E+00  0.4800E+02
    -28.543  0.0000E+00  0.4800E+02
    -28.292  0.0000E+00  0.4800E+02
    -28.041  0.0000E+00  0.4800E+02
    -27.790  0.0000E+00  0.4800E+02
    -27.539  0.0000E+00  0.4800E+02
    -27.288  0.0000E+00  0.4800E+02
    -27.037  0.0000E+00  0.4800E+02
    -26.786  0.0000E+00  0.4800E+02
    -26.535  0.0000E+00  0.4800E+02
    -26.284  0.0000E+00  0.4800E+02
    -26.033  0.0000E+00  0.4800E+02
    -25.782  0.0000E+00  0.4800E+02
    -25.531  0.0000E+00  0.4800E+02
    -25.280  0.0000E+00  0.4800E+02
    -25.029  0.0000E+00  0.4800E+02
    -24.778  0.0000E+00  0.4800E+02
    -24.527  0.0000E+00  0.4800E+02
    -24.276  0.0000E+00  0.4800E+02
    -24.025  0.0000E+00  0.4800E+02
    -23.774  0.0000E+00  0.4800E+02
    -23.523  0.0000E+00  0.4800E+02
    -23.272  0.0000E+00  0.4800E+02
    -23.022  0.0000E+00  0.4800E+02
    -22.771  0.0000E+00  0.4800E+02
    -22.520  0.0000E+00  0.4800E+02
    -22.269  0.0000E+00  0.4800E+02
    -22.018  0.0000E+00  0.4800E+02
    -21.767  0.0000E+00  0.4800E+02
    -21.516  0.0000E+00  0.4800E+02
    -21.265  0.0000E+00  0.4800E+02
    -21.014  0.0000E+00  0.4800E+02
    -20.763  0.0000E+00  0.4800E+02
    -20.512  0.0000E+00  0.4800E+02
    -20.261  0.0000E+00  0.4800E+02
    -20.010  0.0000E+00  0.4800E+02
    -19.759  0.0000E+00  0.4800E+02
    -19.508  0.0000E+00  0.4800E+02
    -19.257  0.0000E+00  0.4800E+02
    -19.006  0.0000E+00  0.4800E+02
    -18.755  0.0000E+00  0.4800E+02
    -18.504  0.0000E+00  0.4800E+02
    -18.253  0.0000E+00  0.4800E+02
    -18.002  0.0000E+00  0.4800E+02
    -17.751  0.0000E+00  0.4800E+02
    -17.500  0.0000E+00  0.4800E+02
    -17.249  0.0000E+00  0.4800E+02
    -16.998  0.0000E+00  0.4800E+02
    -16.747  0.0000E+00  0.4800E+02
    -16.496  0.0000E+00  0.4800E+02
    -16.246  0.0000E+00  0.4800E+02
    -15.995  0.0000E+00  0.4800E+02
    -15.744  0.0000E+00  0.4800E+02
    -15.493  0.0000E+00  0.4800E+02
    -15.242  0.0000E+00  0.4800E+02
    -14.991  0.0000E+00  0.4800E+02
    -14.740  0.0000E+00  0.4800E+02
    -14.489  0.0000E+00  0.4800E+02
    -14.238  0.0000E+00  0.4800E+02
    -13.987  0.0000E+00  0.4800E+02
    -13.736  0.0000E+00  0.4800E+02
    -13.485  0.0000E+00  0.4800E+02
    -13.234  0.0000E+00  0.4800E+02
    -12.983  0.0000E+00  0.4800E+02
    -12.732  0.0000E+00  0.4800E+02
    -12.481  0.0000E+00  0.4800E+02
    -12.230  0.0000E+00  0.4800E+02
    -11.979  0.0000E+00  0.4800E+02
    -11.728  0.0000E+00  0.4800E+02
    -11.477  0.0000E+00  0.4800E+02
    -11.226  0.0000E+00  0.4800E+02
    -10.975  0.0000E+00  0.4800E+02
    -10.724  0.0000E+00  0.4800E+02
    -10.473  0.0000E+00  0.4800E+02
    -10.222  0.0000E+00  0.4800E+02
     -9.971  0.0000E+00  0.4800E+02
     -9.720  0.0000E+00  0.4800E+02
     -9.469  0.0000E+00  0.4800E+02
     -9.219  0.0000E+00  0.4800E+02
     -8.968  0.0000E+00  0.4800E+02
     -8.717  0.0000E+00  0.4800E+02
     -8.466  0.0000E+00  0.4800E+02
     -8.215  0.0000E+00  0.4800E+02
     -7.964  0.0000E+00  0.4800E+02
     -7.713  0.0000E+00  0.4800E+02
     -7.462  0.0000E+00  0.4800E+02
     -7.211  0.0000E+00  0.4800E+02
     -6.960  0.9806E+00  0.4806E+02
     -6.709  0.3183E+01  0.4861E+02
     -6.458  0.3458E+01  0.4946E+02
     -6.207  0.3685E+01  0.5036E+02
     -5.956  0.6433E+01  0.5159E+02
     -5.705  0.9725E+01  0.5342E+02
     -5.454  0.1050E+02  0.5589E+02
     -5.203  0.1283E+02  0.5877E+02
     -4.952  0.1887E+02  0.6281E+02
     -4.701  0.2057E+02  0.6767E+02
     -4.450  0.9493E+01  0.7167E+02
     -4.199  0.0000E+00  0.7200E+02
     -3.948  0.0000E+00  0.7200E+02
     -3.697  0.0000E+00  0.7200E+02
     -3.446  0.0000E+00  0.7200E+02
     -3.195  0.0000E+00  0.7200E+02
     -2.944  0.0000E+00  0.7200E+02
     -2.693  0.0000E+00  0.7200E+02
     -2.443  0.0000E+00  0.7200E+02
     -2.192  0.0000E+00  0.7200E+02
     -1.941  0.0000E+00  0.7200E+02
     -1.690  0.0000E+00  0.7200E+02
     -1.439  0.0000E+00  0.7200E+02
     -1.188  0.0000E+00  0.7200E+02
     -0.937  0.0000E+00  0.7200E+02
     -0.686  0.0000E+00  0.7200E+02
     -0.435  0.0000E+00  0.7200E+02
     -0.184  0.0000E+00  0.7200E+02
      0.067  0.0000E+00  0.7200E+02
      0.318  0.3354E+01  0.7234E+02
      0.569  0.7071E+01  0.7374E+02
      0.820  0.9346E+01  0.7574E+02
      1.071  0.1802E+02  0.7889E+02
      1.322  0.1937E+02  0.8465E+02
      1.573  0.9148E+01  0.8803E+02
      1.824  0.7149E+01  0.9023E+02
      2.075  0.8754E+01  0.9220E+02
      2.326  0.3421E+02  0.9612E+02
      2.577  0.2479E+02  0.1003E+03
      2.828  0.3416E+02  0.1048E+03
      3.079  0.1604E+02  0.1082E+03
      3.330  0.1800E+02  0.1128E+03
      3.581  0.1301E+02  0.1171E+03
      3.832  0.1052E+02  0.1200E+03
      4.083  0.2633E+02  0.1247E+03
      4.334  0.1787E+02  0.1312E+03
      4.584  0.1953E+02  0.1368E+03
      4.835  0.3135E+02  0.1422E+03
      5.086  0.1943E+02  0.1453E+03
      5.337  0.2212E+02  0.1506E+03
      5.588  0.8304E+01  0.1547E+03
      5.839  0.2532E+01  0.1559E+03
      6.090  0.0000E+00  0.1560E+03
      6.341  0.0000E+00  0.1560E+03
      6.592  0.0000E+00  0.1560E+03
      6.843  0.8790E+01  0.1567E+03
      7.094  0.2496E+02  0.1606E+03
      7.345  0.2634E+02  0.1663E+03
      7.596  0.2627E+02  0.1740E+03
      7.847  0.1585E+02  0.1779E+03
      8.098  0.2535E+02  0.1826E+03
      8.349  0.1228E+02  0.1868E+03
      8.600  0.9963E+01  0.1894E+03
      8.851  0.1319E+02  0.1916E+03
      9.102  0.1817E+02  0.1963E+03
      9.353  0.1126E+02  0.1999E+03
      9.604  0.6915E+01  0.2022E+03
      9.855  0.5747E+01  0.2038E+03
     10.106  0.3075E+01  0.2049E+03
     10.357  0.4942E+01  0.2060E+03
     10.608  0.5643E+01  0.2075E+03
     10.859  0.6210E+01  0.2091E+03
     11.110  0.4839E+01  0.2106E+03
     11.360  0.5196E+01  0.2119E+03
     11.611  0.5474E+01  0.2133E+03
     11.862  0.7385E+01  0.2149E+03
     12.113  0.8482E+01  0.2170E+03
     12.364  0.9506E+01  0.2192E+03
     12.615  0.5976E+01  0.2212E+03
     12.866  0.3968E+01  0.2225E+03
     13.117  0.3930E+01  0.2234E+03
     13.368  0.8614E+00  0.2239E+03
     13.619  0.0000E+00  0.2240E+03
     13.870  0.0000E+00  0.2240E+03
     14.121  0.0000E+00  0.2240E+03
     14.372  0.0000E+00  0.2240E+03
     14.623  0.0000E+00  0.2240E+03
     14.874  0.0000E+00  0.2240E+03
     15.125  0.0000E+00  0.2240E+03
     15.376  0.0000E+00  0.2240E+03
     15.627  0.0000E+00  0.2240E+03
     15.878  0.0000E+00  0.2240E+03
     16.129  0.0000E+00  0.2240E+03
     16.380  0.0000E+00  0.2240E+03
     16.631  0.0000E+00  0.2240E+03
     16.882  0.0000E+00  0.2240E+03
