       N       E                     dE             d eps       ncg     rms          rms(c)
DAV:   1     0.102532004894E+04    0.10253E+04   -0.63592E+04  9912   0.915E+02
DAV:   2    -0.423516034731E+02   -0.10677E+04   -0.10317E+04 13636   0.352E+02
DAV:   3    -0.122360751210E+03   -0.80009E+02   -0.78096E+02 11704   0.889E+01
DAV:   4    -0.126690503934E+03   -0.43298E+01   -0.42684E+01 14000   0.248E+01
DAV:   5    -0.126795073639E+03   -0.10457E+00   -0.10414E+00 11508   0.374E+00    0.216E+01
DAV:   6    -0.120198313677E+03    0.65968E+01   -0.83028E+01 14420   0.333E+01    0.152E+01
DAV:   7    -0.113302289466E+03    0.68960E+01   -0.32126E+01 13496   0.210E+01    0.661E+00
DAV:   8    -0.112826442939E+03    0.47585E+00   -0.36530E+00 12992   0.686E+00    0.105E+00
DAV:   9    -0.112830425722E+03   -0.39828E-02   -0.32084E-01 11900   0.211E+00    0.683E-01
DAV:  10    -0.112821695526E+03    0.87302E-02   -0.56793E-02 12376   0.100E+00    0.333E-01
DAV:  11    -0.112820859577E+03    0.83595E-03   -0.19094E-02 13244   0.526E-01    0.164E-01
DAV:  12    -0.112820459553E+03    0.40002E-03   -0.22482E-03 13468   0.307E-01    0.715E-02
DAV:  13    -0.112820256308E+03    0.20324E-03   -0.10479E-03 12180   0.190E-01    0.355E-02
DAV:  14    -0.112820175276E+03    0.81032E-04   -0.37531E-04 10752   0.696E-02    0.151E-02
DAV:  15    -0.112820184507E+03   -0.92311E-05   -0.97219E-05 13244   0.264E-02    0.108E-02
DAV:  16    -0.112820218491E+03   -0.33984E-04   -0.13811E-05 11284   0.117E-02    0.713E-03
DAV:  17    -0.112820261669E+03   -0.43178E-04   -0.67874E-06 12292   0.988E-03    0.550E-03
DAV:  18    -0.112820326435E+03   -0.64766E-04   -0.48767E-06 11676   0.839E-03    0.324E-03
DAV:  19    -0.112820417977E+03   -0.91543E-04   -0.72995E-06 10724   0.470E-03    0.174E-03
DAV:  20    -0.112820440887E+03   -0.22909E-04   -0.11297E-06 11032   0.270E-03    0.765E-04
DAV:  21    -0.112820450794E+03   -0.99077E-05   -0.37165E-07 11116   0.148E-03    0.419E-04
DAV:  22    -0.112820453562E+03   -0.27674E-05   -0.10315E-07  9996   0.823E-04    0.211E-04
DAV:  23    -0.112820454793E+03   -0.12313E-05   -0.67683E-08  9660   0.520E-04    0.741E-05
DAV:  24    -0.112820454894E+03   -0.10056E-06   -0.58900E-09  9072   0.211E-04    0.403E-05
DAV:  25    -0.112820454931E+03   -0.37162E-07   -0.18773E-09  8316   0.121E-04    0.167E-05
DAV:  26    -0.112820454931E+03   -0.12733E-09   -0.30425E-10  7616   0.767E-05
   1 F= -.11898961E+03 E0= -.11898961E+03  d E =0.000000E+00
 Linear response reoptimize wavefunctions
DAV:   1    -0.112820454934E+03    0.61692E+01   -0.14851E-10  7252   0.687E-05
DAV:   2    -0.112820454934E+03   -0.14552E-10   -0.10207E-10  7224   0.382E-05
 Linear response G [H, r] |phi>, progress :
  Direction:   1
       N       E                     dE             d eps       ncg     rms
RMM:   1    -0.748055813590E+03   -0.74806E+03   -0.12615E+04  8985   0.816E+02
RMM:   2    -0.717092013017E+03    0.30964E+02   -0.26461E+02 12301   0.958E+01
RMM:   3    -0.780738013158E+03   -0.63646E+02   -0.37815E+02 15523   0.297E+01
RMM:   4    -0.786245806117E+03   -0.55078E+01   -0.15356E+01 16667   0.784E+00
RMM:   5    -0.786790238248E+03   -0.54443E+00   -0.25869E+00 18024   0.215E+00
RMM:   6    -0.786810130083E+03   -0.19892E-01   -0.17721E-01 17795   0.714E-01
RMM:   7    -0.786817253984E+03   -0.71239E-02   -0.57470E-02 18796   0.253E-01
RMM:   8    -0.786818028915E+03   -0.77493E-03   -0.53596E-03 19142   0.924E-02
RMM:   9    -0.786818247274E+03   -0.21836E-03   -0.14141E-03 19887   0.407E-02
RMM:  10    -0.786818218738E+03    0.28536E-04    0.39502E-05 21020   0.221E-02
RMM:  11    -0.786818364677E+03   -0.14594E-03   -0.12350E-03 21665   0.164E-02
RMM:  12    -0.786818328731E+03    0.35946E-04   -0.84696E-04 22060   0.147E-02
RMM:  13    -0.786818320020E+03    0.87115E-05   -0.75524E-04 22095   0.142E-02
RMM:  14    -0.786818322080E+03   -0.20604E-05   -0.77535E-04 22079   0.141E-02
 Linear response G [H, r] |phi>, progress :
  Direction:   2
       N       E                     dE             d eps       ncg     rms
RMM:   1    -0.724223490236E+03   -0.72422E+03   -0.12940E+04  8919   0.815E+02
RMM:   2    -0.756443894354E+03   -0.32220E+02   -0.25334E+02 12125   0.962E+01
RMM:   3    -0.830024434761E+03   -0.73581E+02   -0.39971E+02 15605   0.302E+01
RMM:   4    -0.836276064558E+03   -0.62516E+01   -0.17978E+01 16792   0.804E+00
RMM:   5    -0.836834119436E+03   -0.55805E+00   -0.22993E+00 17717   0.223E+00
RMM:   6    -0.836856842599E+03   -0.22723E-01   -0.14333E-01 17479   0.721E-01
RMM:   7    -0.836865242448E+03   -0.83998E-02   -0.55710E-02 18629   0.251E-01
RMM:   8    -0.836865669727E+03   -0.42728E-03   -0.48401E-03 18798   0.865E-02
RMM:   9    -0.836865777670E+03   -0.10794E-03   -0.24735E-03 19920   0.374E-02
RMM:  10    -0.836865763696E+03    0.13974E-04   -0.15133E-03 20805   0.206E-02
RMM:  11    -0.836865773227E+03   -0.95311E-05   -0.15184E-03 21753   0.160E-02
RMM:  12    -0.836865774601E+03   -0.13736E-05   -0.15177E-03 22154   0.147E-02
RMM:  13    -0.836865772792E+03    0.18089E-05   -0.14980E-03 22225   0.144E-02
RMM:  14    -0.836865772378E+03    0.41405E-06   -0.14933E-03 22183   0.143E-02
 Linear response G [H, r] |phi>, progress :
  Direction:   3
       N       E                     dE             d eps       ncg     rms
RMM:   1    -0.773484250993E+03   -0.77348E+03   -0.13723E+04  9646   0.805E+02
RMM:   2    -0.759368295985E+03    0.14116E+02   -0.34522E+02 12450   0.923E+01
RMM:   3    -0.816494753824E+03   -0.57126E+02   -0.33140E+02 15236   0.287E+01
RMM:   4    -0.821954456487E+03   -0.54597E+01   -0.18855E+01 16121   0.797E+00
RMM:   5    -0.822279558677E+03   -0.32510E+00   -0.20124E+00 17443   0.221E+00
RMM:   6    -0.822303684890E+03   -0.24126E-01   -0.20189E-01 17674   0.691E-01
RMM:   7    -0.822308818044E+03   -0.51332E-02   -0.42155E-02 17945   0.239E-01
RMM:   8    -0.822309401824E+03   -0.58378E-03   -0.56994E-03 18834   0.863E-02
RMM:   9    -0.822309523572E+03   -0.12175E-03   -0.13229E-03 19369   0.366E-02
RMM:  10    -0.822309544532E+03   -0.20959E-04   -0.58577E-04 20700   0.196E-02
RMM:  11    -0.822309543443E+03    0.10885E-05   -0.44079E-04 21166   0.148E-02
RMM:  12    -0.822309540079E+03    0.33640E-05   -0.38548E-04 21743   0.135E-02
RMM:  13    -0.822309543555E+03   -0.34753E-05   -0.41768E-04 21797   0.132E-02
RMM:  14    -0.822309544642E+03   -0.10877E-05   -0.42823E-04 21840   0.131E-02
 Linear response to external field (no local field effect), progress :
  Direction:   1
       N       E                     dE             d eps       ncg     rms          rms(c)
RMM:   1    -0.142303004670E+02   -0.14230E+02   -0.83101E+01 19652   0.103E+01
RMM:   2    -0.242942937674E+02   -0.10064E+02    0.10888E+00 12612   0.303E+00
RMM:   3    -0.246104187153E+02   -0.31612E+00   -0.30657E-01 16073   0.852E-01
RMM:   4    -0.246196168610E+02   -0.91981E-02   -0.18433E-02 16175   0.201E-01
RMM:   5    -0.246201315991E+02   -0.51474E-03   -0.19948E-03 17315   0.659E-02
RMM:   6    -0.246202020913E+02   -0.70492E-04   -0.23254E-04 17341   0.226E-02
RMM:   7    -0.246202107105E+02   -0.86192E-05   -0.41703E-05 16963   0.840E-03
RMM:   8    -0.246202119715E+02   -0.12610E-05   -0.77256E-06 17101   0.329E-03
RMM:   9    -0.246202121856E+02   -0.21405E-06   -0.44300E-06 17244   0.166E-03
RMM:  10    -0.246202122147E+02   -0.29133E-07   -0.37644E-06 17972   0.116E-03
RMM:  11    -0.246202122174E+02   -0.26453E-08   -0.36761E-06 18013   0.103E-03
RMM:  12    -0.246202122170E+02    0.40701E-09   -0.36534E-06 17878   0.992E-04
RMM:  13    -0.246202122160E+02    0.99869E-09   -0.36408E-06 17485   0.983E-04
 Linear response to external field (no local field effect), progress :
  Direction:   2
       N       E                     dE             d eps       ncg     rms          rms(c)
RMM:   1    -0.159019747609E+02   -0.15902E+02   -0.92860E+01 19502   0.105E+01
RMM:   2    -0.255831585768E+02   -0.96812E+01    0.88728E-01 12697   0.312E+00
RMM:   3    -0.258807314858E+02   -0.29757E+00   -0.31783E-01 15861   0.889E-01
RMM:   4    -0.258906483325E+02   -0.99168E-02   -0.18294E-02 16069   0.219E-01
RMM:   5    -0.258912443855E+02   -0.59605E-03   -0.24732E-03 17010   0.740E-02
RMM:   6    -0.258913430622E+02   -0.98677E-04   -0.26991E-04 17329   0.245E-02
RMM:   7    -0.258913543640E+02   -0.11302E-04   -0.44210E-05 16858   0.903E-03
RMM:   8    -0.258913560621E+02   -0.16981E-05   -0.10052E-05 17095   0.354E-03
RMM:   9    -0.258913563009E+02   -0.23880E-06   -0.56304E-06 16983   0.177E-03
RMM:  10    -0.258913563350E+02   -0.34127E-07   -0.48696E-06 17955   0.123E-03
RMM:  11    -0.258913563345E+02    0.54263E-09   -0.47428E-06 18038   0.108E-03
RMM:  12    -0.258913563362E+02   -0.17496E-08   -0.47431E-06 17921   0.105E-03
RMM:  13    -0.258913563358E+02    0.38056E-09   -0.47373E-06 17489   0.104E-03
 Linear response to external field (no local field effect), progress :
  Direction:   3
       N       E                     dE             d eps       ncg     rms          rms(c)
RMM:   1    -0.115589874908E+02   -0.11559E+02   -0.58803E+01 19487   0.990E+00
RMM:   2    -0.156470517758E+02   -0.40881E+01   -0.55834E-01 12205   0.277E+00
RMM:   3    -0.157510497998E+02   -0.10400E+00   -0.20333E-01 15171   0.786E-01
RMM:   4    -0.157570641091E+02   -0.60143E-02   -0.12229E-02 16061   0.206E-01
RMM:   5    -0.157573900352E+02   -0.32593E-03   -0.13241E-03 16310   0.684E-02
RMM:   6    -0.157574390317E+02   -0.48996E-04   -0.16445E-04 17200   0.238E-02
RMM:   7    -0.157574464224E+02   -0.73907E-05   -0.31938E-05 16700   0.863E-03
RMM:   8    -0.157574471572E+02   -0.73481E-06   -0.81795E-06 16637   0.331E-03
RMM:   9    -0.157574473899E+02   -0.23273E-06   -0.66088E-06 16534   0.161E-03
RMM:  10    -0.157574473254E+02    0.64573E-07   -0.53562E-06 17486   0.110E-03
RMM:  11    -0.157574473989E+02   -0.73484E-07   -0.60149E-06 17573   0.972E-04
RMM:  12    -0.157574473860E+02    0.12839E-07   -0.58737E-06 17573   0.940E-04
RMM:  13    -0.157574473933E+02   -0.73243E-08   -0.59441E-06 17271   0.932E-04
 Linear response to external field, progress :
  Direction:   1
       N       E                     dE             d eps       ncg     rms          rms(c)
RMM:   1    -0.151425289997E+02   -0.15143E+02   -0.88745E+01 48191   0.103E+01
RMM:   2    -0.249555621884E+02   -0.98130E+01    0.85546E-01 31175   0.302E+00    0.965E+00
RMM:   3    -0.244498935332E+02    0.50567E+00   -0.55264E-01 34766   0.298E+00    0.520E+00
RMM:   4    -0.250535640844E+02   -0.60367E+00   -0.59204E-01 34615   0.290E+00    0.810E-01
RMM:   5    -0.252256998754E+02   -0.17214E+00    0.14875E-02 37196   0.864E-01    0.132E-01
RMM:   6    -0.252639012238E+02   -0.38201E-01   -0.59883E-02 42024   0.207E-01    0.761E-02
RMM:   7    -0.252548553855E+02    0.90458E-02    0.75079E-02 41280   0.733E-02    0.473E-02
RMM:   8    -0.252697540156E+02   -0.14899E-01   -0.39948E-02 39808   0.398E-02    0.127E-02
RMM:   9    -0.252665151192E+02    0.32389E-02   -0.13451E-04 39807   0.160E-02    0.599E-03
RMM:  10    -0.252674509349E+02   -0.93582E-03   -0.20933E-04 39759   0.733E-03    0.217E-03
RMM:  11    -0.252675258531E+02   -0.74918E-04   -0.16568E-04 42954   0.311E-03    0.978E-04
RMM:  12    -0.252675447390E+02   -0.18886E-04    0.37343E-04 44819   0.168E-03    0.650E-04
RMM:  13    -0.252676169505E+02   -0.72212E-04    0.31461E-04 41575   0.129E-03    0.209E-04
RMM:  14    -0.252676778596E+02   -0.60909E-04   -0.29590E-04 44206   0.109E-03    0.781E-05
RMM:  15    -0.252676537163E+02    0.24143E-04   -0.66651E-05 47253   0.986E-04    0.414E-05
RMM:  16    -0.252676491004E+02    0.46159E-05   -0.63221E-06 45589   0.966E-04    0.172E-05
RMM:  17    -0.252676505359E+02   -0.14355E-05   -0.19380E-05 43681   0.960E-04    0.106E-05
RMM:  18    -0.252676517570E+02   -0.12212E-05   -0.30824E-05 43262   0.960E-04    0.579E-06
 Linear response to external field, progress :
  Direction:   2
       N       E                     dE             d eps       ncg     rms          rms(c)
RMM:   1    -0.151799761006E+02   -0.15180E+02   -0.89119E+01 48348   0.103E+01
RMM:   2    -0.249437066818E+02   -0.97637E+01    0.96277E-01 31442   0.303E+00    0.965E+00
RMM:   3    -0.244327440821E+02    0.51096E+00   -0.37919E-01 34708   0.298E+00    0.520E+00
RMM:   4    -0.250605414773E+02   -0.62780E+00   -0.66215E-01 34785   0.290E+00    0.812E-01
RMM:   5    -0.252053896964E+02   -0.14485E+00    0.19498E-01 37239   0.871E-01    0.183E-01
RMM:   6    -0.252823058917E+02   -0.76916E-01   -0.28624E-01 41197   0.242E-01    0.109E-01
RMM:   7    -0.252557111144E+02    0.26595E-01    0.50413E-02 43406   0.884E-02    0.520E-02
RMM:   8    -0.252634800988E+02   -0.77690E-02    0.19838E-02 38652   0.478E-02    0.161E-02
RMM:   9    -0.252674580623E+02   -0.39780E-02   -0.12677E-02 43383   0.173E-02    0.902E-03
RMM:  10    -0.252665467591E+02    0.91130E-03    0.26171E-03 37779   0.908E-03    0.422E-03
RMM:  11    -0.252675404395E+02   -0.99368E-03   -0.49636E-04 40428   0.454E-03    0.137E-03
RMM:  12    -0.252675513683E+02   -0.10929E-04    0.81515E-05 41464   0.240E-03    0.766E-04
RMM:  13    -0.252676183614E+02   -0.66993E-04    0.47314E-05 44220   0.135E-03    0.481E-04
RMM:  14    -0.252676543552E+02   -0.35994E-04   -0.10111E-04 42552   0.115E-03    0.181E-04
RMM:  15    -0.252676539490E+02    0.40624E-06   -0.45217E-05 45516   0.104E-03    0.661E-05
RMM:  16    -0.252676564710E+02   -0.25221E-05   -0.65463E-05 46133   0.980E-04    0.419E-05
RMM:  17    -0.252676537745E+02    0.26965E-05   -0.37325E-05 45509   0.952E-04    0.237E-05
RMM:  18    -0.252676531884E+02    0.58612E-06   -0.32362E-05 44007   0.950E-04    0.137E-05
RMM:  19    -0.252676536322E+02   -0.44387E-06   -0.37964E-05 44009   0.949E-04    0.488E-06
 Linear response to external field, progress :
  Direction:   3
       N       E                     dE             d eps       ncg     rms          rms(c)
RMM:   1    -0.115589874908E+02   -0.11559E+02   -0.58803E+01 19487   0.990E+00
RMM:   2    -0.156470517758E+02   -0.40881E+01   -0.55834E-01 12205   0.277E+00    0.773E+00
RMM:   3     0.149181566256E+01    0.17139E+02    0.82183E+01 13480   0.424E+00    0.216E+00
RMM:   4    -0.388646713621E+01   -0.53783E+01    0.23953E+01 15018   0.189E+00    0.146E+00
RMM:   5    -0.162166646401E+01    0.22648E+01    0.42233E+01 13955   0.104E+00    0.111E+00
RMM:   6     0.322603080771E+01    0.48477E+01    0.83756E+01 14134   0.106E+00    0.507E-01
RMM:   7    -0.220705147237E+01   -0.54331E+01    0.28248E+01 15931   0.417E-01    0.438E-01
RMM:   8    -0.352591034838E+01   -0.13189E+01    0.13913E+01 15059   0.382E-01    0.290E-01
RMM:   9    -0.363423689901E+01   -0.10833E+00    0.12661E+01 15109   0.236E-01    0.146E-01
RMM:  10    -0.401289243987E+01   -0.37866E+00    0.88585E+00 14889   0.153E-01    0.113E-01
RMM:  11    -0.454480317878E+01   -0.53191E+00    0.35206E+00 14423   0.106E-01    0.632E-02
RMM:  12    -0.476656805824E+01   -0.22176E+00    0.13195E+00 13990   0.549E-02    0.419E-02
RMM:  13    -0.485166353733E+01   -0.85095E-01    0.55067E-01 13256   0.667E-02    0.218E-02
RMM:  14    -0.486553686150E+01   -0.13873E-01    0.44915E-01 13798   0.329E-02    0.103E-02
RMM:  15    -0.490356802941E+01   -0.38031E-01    0.87717E-02 14639   0.151E-02    0.644E-03
RMM:  16    -0.491599903319E+01   -0.12431E-01   -0.25541E-02 14174   0.804E-03    0.237E-03
RMM:  17    -0.491105500910E+01    0.49440E-02    0.27330E-02 15168   0.375E-03    0.102E-03
RMM:  18    -0.491229228196E+01   -0.12373E-02    0.16837E-02 15477   0.185E-03    0.336E-04
RMM:  19    -0.491436176374E+01   -0.20695E-02   -0.34203E-03 16564   0.903E-04    0.157E-04
RMM:  20    -0.491424814519E+01    0.11362E-03   -0.21879E-03 16779   0.552E-04    0.749E-05
RMM:  21    -0.491405140148E+01    0.19674E-03   -0.18777E-04 18095   0.454E-04    0.386E-05
RMM:  22    -0.491376076848E+01    0.29063E-03    0.27651E-03 17544   0.431E-04    0.159E-05
RMM:  23    -0.491346187759E+01    0.29889E-03    0.57579E-03 16285   0.409E-04    0.790E-06
