 vasp.5.4.1 24Jun15 (build Apr 13 2016 13:07:19) complex                        
  
 executed on           IFC91_ompi date 2019.09.14  02:39:34
 running on   28 total cores
 distrk:  each k-point on   28 cores,    1 groups
 distr:  one band on NCORES_PER_BAND=   1 cores,   28 groups


--------------------------------------------------------------------------------------------------------


 INCAR:
 POTCAR:    PAW_PBE Mo_sv_GW 05Dec2013            
 POTCAR:    PAW_PBE Te_GW 22Mar2012               

 ----------------------------------------------------------------------------- 
|                                                                             |
|           W    W    AA    RRRRR   N    N  II  N    N   GGGG   !!!           |
|           W    W   A  A   R    R  NN   N  II  NN   N  G    G  !!!           |
|           W    W  A    A  R    R  N N  N  II  N N  N  G       !!!           |
|           W WW W  AAAAAA  RRRRR   N  N N  II  N  N N  G  GGG   !            |
|           WW  WW  A    A  R   R   N   NN  II  N   NN  G    G                |
|           W    W  A    A  R    R  N    N  II  N    N   GGGG   !!!           |
|                                                                             |
|      For optimal performance we recommend to set                            |
|        NCORE= 4 - approx SQRT( number of cores)                             |
|      NCORE specifies how many cores store one orbital (NPAR=cpu/NCORE).     |
|      This setting can  greatly improve the performance of VASP for DFT.     |
|      The default, NPAR=number of cores might be grossly inefficient         |
|      on modern multi-core architectures or massively parallel machines.     |
|      Do your own testing !!!!                                               |
|      Unfortunately you need to use the default for GW and RPA calculations. |
|      (for HF NCORE is supported but not extensively tested yet)             |
|                                                                             |
 ----------------------------------------------------------------------------- 

 POTCAR:    PAW_PBE Mo_sv_GW 05Dec2013            
   VRHFIN =Mo: 4s4p5s4d                                                         
   LEXCH  = PE                                                                  
   EATOM  =  1861.5185 eV,  136.8178 Ry                                         
                                                                                
   TITEL  = PAW_PBE Mo_sv_GW 05Dec2013                                          
   LULTRA =        F    use ultrasoft PP ?                                      
   IUNSCR =        1    unscreen: 0-lin 1-nonlin 2-no                           
   RPACOR =    2.000    partial core radius                                     
   POMASS =   95.940; ZVAL   =   14.000    mass and valenz                      
   RCORE  =    2.100    outmost cutoff radius                                   
   RWIGS  =    2.100; RWIGS  =    1.111    wigner-seitz radius (au A)           
   ENMAX  =  344.914; ENMIN  =  258.686 eV                                      
   RCLOC  =    1.508    cutoff for local pot                                    
   LCOR   =        T    correct aug charges                                     
   LPAW   =        T    paw PP                                                  
   EAUG   =  964.741                                                            
   DEXC   =    0.000                                                            
   RMAX   =    2.149    core radius for proj-oper                               
   RAUG   =    1.300    factor for augmentation sphere                          
   RDEP   =    2.179    radius for radial grids                                 
   RDEPT  =    1.677    core radius for aug-charge                              
                                                                                
   Atomic configuration                                                         
   12 entries                                                                   
     n  l   j            E        occ.                                          
     1  0  0.50    -19816.9363   2.0000                                         
     2  0  0.50     -2796.7578   2.0000                                         
     2  1  1.50     -2499.7842   6.0000                                         
     3  0  0.50      -474.2095   2.0000                                         
     3  1  1.50      -376.9135   6.0000                                         
     3  2  2.50      -218.6898  10.0000                                         
     4  0  0.50       -62.1983   2.0000                                         
     4  0  0.50       -66.6685   0.0000                                         
     4  1  1.50       -36.4414   6.0000                                         
     4  1  1.50       -40.8175   0.0000                                         
     4  2  2.50        -2.3086   6.0000                                         
     4  3  2.50        -1.3606   0.0000                                         
   Description                                                                  
     l       E           TYP  RCUT    TYP  RCUT                                 
     0    -62.1983072     23  1.950                                             
     0     27.2116520     23  1.950                                             
     0    149.6640860     23  1.950                                             
     1    -36.4413666     23  1.800                                             
     1    -40.8174780     23  1.800                                             
     1     54.4233040     23  1.800                                             
     2     -2.3085597     23  2.000                                             
     2     -6.8029130     23  2.000                                             
     2    136.0582600     23  2.000                                             
     3     13.6058260     23  2.100                                             
     3     81.6349560     23  2.100                                             
  local pseudopotential read in
  partial core-charges read in
  partial kinetic energy density read in
  kinetic energy density of atom read in
  atomic valenz-charges read in
  non local Contribution for L=           0  read in
    real space projection operators read in
  non local Contribution for L=           0  read in
    real space projection operators read in
  non local Contribution for L=           0  read in
    real space projection operators read in
  non local Contribution for L=           1  read in
    real space projection operators read in
  non local Contribution for L=           1  read in
    real space projection operators read in
  non local Contribution for L=           1  read in
    real space projection operators read in
  non local Contribution for L=           2  read in
    real space projection operators read in
  non local Contribution for L=           2  read in
    real space projection operators read in
  non local Contribution for L=           2  read in
    real space projection operators read in
  non local Contribution for L=           3  read in
    real space projection operators read in
  non local Contribution for L=           3  read in
    real space projection operators read in
    PAW grid and wavefunctions read in
 
   number of l-projection  operators is LMAX  =          11
   number of lm-projection operators is LMMAX =          41
 
 POTCAR:    PAW_PBE Te_GW 22Mar2012               
   VRHFIN =Te: s2p4                                                             
   LEXCH  = PE                                                                  
   EATOM  =   223.2721 eV,   16.4100 Ry                                         
                                                                                
   TITEL  = PAW_PBE Te_GW 22Mar2012                                             
   LULTRA =        F    use ultrasoft PP ?                                      
   IUNSCR =        1    unscreen: 0-lin 1-nonlin 2-no                           
   RPACOR =    2.200    partial core radius                                     
   POMASS =  127.600; ZVAL   =    6.000    mass and valenz                      
   RCORE  =    2.600    outmost cutoff radius                                   
   RWIGS  =    2.900; RWIGS  =    1.535    wigner-seitz radius (au A)           
   ENMAX  =  174.982; ENMIN  =  131.236 eV                                      
   ICORE  =        3    local potential                                         
   LCOR   =        T    correct aug charges                                     
   LPAW   =        T    paw PP                                                  
   EAUG   =  368.792                                                            
   DEXC   =    0.000                                                            
   RMAX   =    2.665    core radius for proj-oper                               
   RAUG   =    1.300    factor for augmentation sphere                          
   RDEP   =    2.724    radius for radial grids                                 
   RDEPT  =    2.174    core radius for aug-charge                              
                                                                                
   Atomic configuration                                                         
   13 entries                                                                   
     n  l   j            E        occ.                                          
     1  0  0.50    -31621.2075   2.0000                                         
     2  0  0.50     -4848.7941   2.0000                                         
     2  1  1.50     -4352.1960   6.0000                                         
     3  0  0.50      -964.9612   2.0000                                         
     3  1  1.50      -803.6179   6.0000                                         
     3  2  2.50      -559.8710  10.0000                                         
     4  0  0.50      -164.3522   2.0000                                         
     4  1  1.50      -114.3756   6.0000                                         
     4  2  2.50       -41.6483  10.0000                                         
     5  0  0.50       -15.1072   2.0000                                         
     5  1  0.50        -5.9526   4.0000                                         
     5  2  1.50        -6.8029   0.0000                                         
     4  3  2.50        -6.8029   0.0000                                         
   Description                                                                  
     l       E           TYP  RCUT    TYP  RCUT                                 
     0    -15.1072389     23  2.300                                             
     0     68.0291300     23  2.300                                             
     1     -5.9526306     23  2.300                                             
     1     95.2407820     23  2.300                                             
     2      1.3605826     23  2.600                                             
     2     68.0291300     23  2.600                                             
     3     -1.3605826     23  2.300                                             
  local pseudopotential read in
  partial core-charges read in
  partial kinetic energy density read in
  kinetic energy density of atom read in
  atomic valenz-charges read in
  non local Contribution for L=           0  read in
    real space projection operators read in
  non local Contribution for L=           0  read in
    real space projection operators read in
  non local Contribution for L=           1  read in
    real space projection operators read in
  non local Contribution for L=           1  read in
    real space projection operators read in
  non local Contribution for L=           2  read in
    real space projection operators read in
  non local Contribution for L=           2  read in
    real space projection operators read in
    PAW grid and wavefunctions read in
 
   number of l-projection  operators is LMAX  =           6
   number of lm-projection operators is LMMAX =          18
 

 ----------------------------------------------------------------------------- 
|                                                                             |
|  ADVICE TO THIS USER RUNNING 'VASP/VAMP'   (HEAR YOUR MASTER'S VOICE ...):  |
|                                                                             |
|      You have a (more or less) 'large supercell' and for larger cells       |
|      it might be more efficient to use real space projection opertators     |
|      So try LREAL= Auto  in the INCAR   file.                               |
|      Mind: At the moment your POTCAR file does not contain real space       |
|       projectors, and has to be modified,  BUT if you                       |
|      want to do an extremely  accurate calculation you might also keep the  |
|      reciprocal projection scheme          (i.e. LREAL=.FALSE.)             |
|                                                                             |
 ----------------------------------------------------------------------------- 

  PAW_PBE Mo_sv_GW 05Dec2013            :
 energy of atom  1       EATOM=-1861.5185
 kinetic energy error for atom=    0.1105 (will be added to EATOM!!)
  PAW_PBE Te_GW 22Mar2012               :
 energy of atom  2       EATOM= -223.2721
 kinetic energy error for atom=    0.0019 (will be added to EATOM!!)
 
 
 POSCAR: Mo Te                                   
  positions in cartesian coordinates
  No initial velocities read in
 exchange correlation table for  LEXCH =        8
   RHO(1)=    0.500       N(1)  =     2000
   RHO(2)=  100.500       N(2)  =     4000
 


--------------------------------------------------------------------------------------------------------


 ion  position               nearest neighbor table
   1  0.167  0.333  0.151-   7 2.73   7 2.73   7 2.73   8 2.73   8 2.73   8 2.73
   2  0.833  0.667  0.291-   9 2.73  10 2.73   9 2.73  10 2.73   9 2.73  10 2.73
   3  0.167  0.333  0.430-  11 2.73  12 2.73  11 2.73  12 2.73  11 2.73  12 2.73
   4  0.833  0.667  0.570-  13 2.73  14 2.73  13 2.73  14 2.73  13 2.73  14 2.73
   5  0.167  0.333  0.709-  15 2.73  16 2.73  15 2.73  16 2.73  15 2.73  16 2.73
   6  0.833  0.667  0.849-  17 2.73  17 2.73  17 2.73  18 2.73  18 2.73  18 2.73
   7  0.833  0.667  0.187-   1 2.73   1 2.73   1 2.73   8 3.61
   8  0.833  0.667  0.115-   1 2.73   1 2.73   1 2.73   7 3.61
   9  0.167  0.333  0.327-   2 2.73   2 2.73   2 2.73  10 3.61
  10  0.167  0.333  0.254-   2 2.73   2 2.73   2 2.73   9 3.61
  11  0.833  0.667  0.466-   3 2.73   3 2.73   3 2.73  12 3.61
  12  0.833  0.667  0.394-   3 2.73   3 2.73   3 2.73  11 3.61
  13  0.167  0.333  0.606-   4 2.73   4 2.73   4 2.73  14 3.61
  14  0.167  0.333  0.534-   4 2.73   4 2.73   4 2.73  13 3.61
  15  0.833  0.667  0.746-   5 2.73   5 2.73   5 2.73  16 3.61
  16  0.833  0.667  0.673-   5 2.73   5 2.73   5 2.73  15 3.61
  17  0.167  0.333  0.885-   6 2.73   6 2.73   6 2.73  18 3.61
  18  0.167  0.333  0.813-   6 2.73   6 2.73   6 2.73  17 3.61
 
  LATTYP: Found a hexagonal cell.
 ALAT       =     3.5473923118
 C/A-ratio  =    14.0948605637
  
  Lattice vectors:
  
 A1 = (   3.5473923118,   0.0000000000,   0.0000000000)
 A2 = (  -1.7736961559,   3.0721318592,   0.0000000000)
 A3 = (   0.0000000000,   0.0000000000,  50.0000000000)


Analysis of symmetry for initial positions (statically):
=====================================================================
 Subroutine PRICEL returns:
 Original cell was already a primitive cell.
 

 Routine SETGRP: Setting up the symmetry group for a 
 hexagonal supercell.


 Subroutine GETGRP returns: Found 12 space group operations
 (whereof  4 operations were pure point group operations)
 out of a pool of 24 trial point group operations.


The static configuration has the point symmetry C_2h.
 The point group associated with its full space group is D_3d.


Analysis of symmetry for dynamics (positions and initial velocities):
=====================================================================
 Subroutine PRICEL returns:
 Original cell was already a primitive cell.
 

 Routine SETGRP: Setting up the symmetry group for a 
 hexagonal supercell.


 Subroutine GETGRP returns: Found 12 space group operations
 (whereof  4 operations were pure point group operations)
 out of a pool of 24 trial point group operations.


The dynamic configuration has the point symmetry C_2h.
 The point group associated with its full space group is D_3d.


 Subroutine INISYM returns: Found 12 space group operations
 (whereof  4 operations are pure point group operations),
 and found     1 'primitive' translations

 
 
 KPOINTS: KPOINTS created by Atomic Simulation Env

Automatic generation of k-mesh.
Space group operators:
 irot       det(A)        alpha          n_x          n_y          n_z        tau_x        tau_y        tau_z
    1     1.000000     0.000001     1.000000     0.000000     0.000000     0.000000     0.000000     0.000000
    2    -1.000000     0.000001     1.000000     0.000000     0.000000     0.000000     0.000000     0.000000
    3     1.000000   180.000000     1.000000     0.000000     0.000000     0.000000     0.000000     0.000000
    4    -1.000000   180.000000     1.000000     0.000000     0.000000     0.000000     0.000000     0.000000
    5     1.000000   120.000000     0.000000     0.000000    -1.000000     0.500000     0.500000     0.000000
    6    -1.000000   120.000000     0.000000     0.000000    -1.000000     0.500000     0.500000     0.000000
    7     1.000000   120.000000     0.000000     0.000000     1.000000     0.000000     0.500000     0.000000
    8    -1.000000   120.000000     0.000000     0.000000     1.000000     0.000000     0.500000     0.000000
    9     1.000000   180.000000     0.500000    -0.866025     0.000000     0.000000     0.500000     0.000000
   10    -1.000000   180.000000     0.500000    -0.866025     0.000000     0.000000     0.500000     0.000000
   11     1.000000   180.000000    -0.500000    -0.866025     0.000000     0.500000     0.500000     0.000000
   12    -1.000000   180.000000    -0.500000    -0.866025     0.000000     0.500000     0.500000     0.000000
 
 Subroutine IBZKPT returns following result:
 ===========================================
 
 Found     37 irreducible k-points:
 
 Following reciprocal coordinates:
            Coordinates               Weight
  0.000000  0.000000  0.000000      1.000000
  0.055556  0.000000  0.000000      6.000000
  0.111111  0.000000  0.000000      6.000000
  0.166667  0.000000  0.000000      6.000000
  0.222222  0.000000  0.000000      6.000000
  0.277778  0.000000  0.000000      6.000000
  0.333333  0.000000  0.000000      6.000000
  0.388889  0.000000  0.000000      6.000000
  0.444444  0.000000  0.000000      6.000000
  0.500000  0.000000  0.000000      3.000000
  0.055556  0.055556  0.000000      6.000000
  0.111111  0.055556  0.000000     12.000000
  0.166667  0.055556  0.000000     12.000000
  0.222222  0.055556  0.000000     12.000000
  0.277778  0.055556  0.000000     12.000000
  0.333333  0.055556  0.000000     12.000000
  0.388889  0.055556  0.000000     12.000000
  0.444444  0.055556  0.000000     12.000000
  0.111111  0.111111  0.000000      6.000000
  0.166667  0.111111  0.000000     12.000000
  0.222222  0.111111  0.000000     12.000000
  0.277778  0.111111  0.000000     12.000000
  0.333333  0.111111  0.000000     12.000000
  0.388889  0.111111  0.000000     12.000000
  0.444444  0.111111  0.000000      6.000000
  0.166667  0.166667  0.000000      6.000000
  0.222222  0.166667  0.000000     12.000000
  0.277778  0.166667  0.000000     12.000000
  0.333333  0.166667  0.000000     12.000000
  0.388889  0.166667  0.000000     12.000000
  0.222222  0.222222  0.000000      6.000000
  0.277778  0.222222  0.000000     12.000000
  0.333333  0.222222  0.000000     12.000000
  0.388889  0.222222  0.000000      6.000000
  0.277778  0.277778  0.000000      6.000000
  0.333333  0.277778  0.000000     12.000000
  0.333333  0.333333  0.000000      2.000000
 
 Following cartesian coordinates:
            Coordinates               Weight
  0.000000  0.000000  0.000000      1.000000
  0.015661  0.009042  0.000000      6.000000
  0.031322  0.018084  0.000000      6.000000
  0.046983  0.027126  0.000000      6.000000
  0.062644  0.036167  0.000000      6.000000
  0.078305  0.045209  0.000000      6.000000
  0.093966  0.054251  0.000000      6.000000
  0.109627  0.063293  0.000000      6.000000
  0.125288  0.072335  0.000000      6.000000
  0.140949  0.081377  0.000000      3.000000
  0.015661  0.027126  0.000000      6.000000
  0.031322  0.036167  0.000000     12.000000
  0.046983  0.045209  0.000000     12.000000
  0.062644  0.054251  0.000000     12.000000
  0.078305  0.063293  0.000000     12.000000
  0.093966  0.072335  0.000000     12.000000
  0.109627  0.081377  0.000000     12.000000
  0.125288  0.090419  0.000000     12.000000
  0.031322  0.054251  0.000000      6.000000
  0.046983  0.063293  0.000000     12.000000
  0.062644  0.072335  0.000000     12.000000
  0.078305  0.081377  0.000000     12.000000
  0.093966  0.090419  0.000000     12.000000
  0.109627  0.099460  0.000000     12.000000
  0.125288  0.108502  0.000000      6.000000
  0.046983  0.081377  0.000000      6.000000
  0.062644  0.090419  0.000000     12.000000
  0.078305  0.099460  0.000000     12.000000
  0.093966  0.108502  0.000000     12.000000
  0.109627  0.117544  0.000000     12.000000
  0.062644  0.108502  0.000000      6.000000
  0.078305  0.117544  0.000000     12.000000
  0.093966  0.126586  0.000000     12.000000
  0.109627  0.135628  0.000000      6.000000
  0.078305  0.135628  0.000000      6.000000
  0.093966  0.144670  0.000000     12.000000
  0.093966  0.162753  0.000000      2.000000
 
 TETIRR: Found    169 inequivalent tetrahedra from     1944
 
 Subroutine IBZKPT_HF returns following result:
 ==============================================
 
 Found    324 k-points in 1st BZ
 the following    324 k-points will be used (e.g. in the exchange kernel)
 Following reciprocal coordinates:   # in IRBZ
  0.000000  0.000000  0.000000    0.00308642   1 t-inv F
  0.055556  0.000000  0.000000    0.00308642   2 t-inv F
  0.111111  0.000000  0.000000    0.00308642   3 t-inv F
  0.166667  0.000000  0.000000    0.00308642   4 t-inv F
  0.222222  0.000000  0.000000    0.00308642   5 t-inv F
  0.277778  0.000000  0.000000    0.00308642   6 t-inv F
  0.333333  0.000000  0.000000    0.00308642   7 t-inv F
  0.388889  0.000000  0.000000    0.00308642   8 t-inv F
  0.444444  0.000000  0.000000    0.00308642   9 t-inv F
  0.500000  0.000000  0.000000    0.00308642  10 t-inv F
  0.055556  0.055556  0.000000    0.00308642  11 t-inv F
  0.111111  0.055556  0.000000    0.00308642  12 t-inv F
  0.166667  0.055556  0.000000    0.00308642  13 t-inv F
  0.222222  0.055556  0.000000    0.00308642  14 t-inv F
  0.277778  0.055556  0.000000    0.00308642  15 t-inv F
  0.333333  0.055556  0.000000    0.00308642  16 t-inv F
  0.388889  0.055556  0.000000    0.00308642  17 t-inv F
  0.444444  0.055556  0.000000    0.00308642  18 t-inv F
  0.111111  0.111111  0.000000    0.00308642  19 t-inv F
  0.166667  0.111111  0.000000    0.00308642  20 t-inv F
  0.222222  0.111111  0.000000    0.00308642  21 t-inv F
  0.277778  0.111111  0.000000    0.00308642  22 t-inv F
  0.333333  0.111111  0.000000    0.00308642  23 t-inv F
  0.388889  0.111111  0.000000    0.00308642  24 t-inv F
  0.444444  0.111111  0.000000    0.00308642  25 t-inv F
  0.166667  0.166667  0.000000    0.00308642  26 t-inv F
  0.222222  0.166667  0.000000    0.00308642  27 t-inv F
  0.277778  0.166667  0.000000    0.00308642  28 t-inv F
  0.333333  0.166667  0.000000    0.00308642  29 t-inv F
  0.388889  0.166667  0.000000    0.00308642  30 t-inv F
  0.222222  0.222222  0.000000    0.00308642  31 t-inv F
  0.277778  0.222222  0.000000    0.00308642  32 t-inv F
  0.333333  0.222222  0.000000    0.00308642  33 t-inv F
  0.388889  0.222222  0.000000    0.00308642  34 t-inv F
  0.277778  0.277778  0.000000    0.00308642  35 t-inv F
  0.333333  0.277778  0.000000    0.00308642  36 t-inv F
  0.333333  0.333333  0.000000    0.00308642  37 t-inv F
 -0.055556 -0.000000 -0.000000    0.00308642   2 t-inv F
  0.055556 -0.055556 -0.000000    0.00308642   2 t-inv F
 -0.055556  0.055556  0.000000    0.00308642   2 t-inv F
  0.000000 -0.055556  0.000000    0.00308642   2 t-inv F
 -0.000000  0.055556 -0.000000    0.00308642   2 t-inv F
 -0.111111 -0.000000 -0.000000    0.00308642   3 t-inv F
  0.111111 -0.111111 -0.000000    0.00308642   3 t-inv F
 -0.111111  0.111111  0.000000    0.00308642   3 t-inv F
  0.000000 -0.111111  0.000000    0.00308642   3 t-inv F
 -0.000000  0.111111 -0.000000    0.00308642   3 t-inv F
 -0.166667 -0.000000 -0.000000    0.00308642   4 t-inv F
  0.166667 -0.166667 -0.000000    0.00308642   4 t-inv F
 -0.166667  0.166667  0.000000    0.00308642   4 t-inv F
  0.000000 -0.166667  0.000000    0.00308642   4 t-inv F
 -0.000000  0.166667 -0.000000    0.00308642   4 t-inv F
 -0.222222 -0.000000 -0.000000    0.00308642   5 t-inv F
  0.222222 -0.222222 -0.000000    0.00308642   5 t-inv F
 -0.222222  0.222222  0.000000    0.00308642   5 t-inv F
  0.000000 -0.222222  0.000000    0.00308642   5 t-inv F
 -0.000000  0.222222 -0.000000    0.00308642   5 t-inv F
 -0.277778 -0.000000 -0.000000    0.00308642   6 t-inv F
  0.277778 -0.277778 -0.000000    0.00308642   6 t-inv F
 -0.277778  0.277778  0.000000    0.00308642   6 t-inv F
  0.000000 -0.277778  0.000000    0.00308642   6 t-inv F
 -0.000000  0.277778 -0.000000    0.00308642   6 t-inv F
 -0.333333 -0.000000 -0.000000    0.00308642   7 t-inv F
  0.333333 -0.333333 -0.000000    0.00308642   7 t-inv F
 -0.333333  0.333333  0.000000    0.00308642   7 t-inv F
  0.000000 -0.333333  0.000000    0.00308642   7 t-inv F
 -0.000000  0.333333 -0.000000    0.00308642   7 t-inv F
 -0.388889 -0.000000 -0.000000    0.00308642   8 t-inv F
  0.388889 -0.388889 -0.000000    0.00308642   8 t-inv F
 -0.388889  0.388889  0.000000    0.00308642   8 t-inv F
  0.000000 -0.388889  0.000000    0.00308642   8 t-inv F
 -0.000000  0.388889 -0.000000    0.00308642   8 t-inv F
 -0.444444 -0.000000 -0.000000    0.00308642   9 t-inv F
  0.444444 -0.444444 -0.000000    0.00308642   9 t-inv F
 -0.444444  0.444444  0.000000    0.00308642   9 t-inv F
  0.000000 -0.444444  0.000000    0.00308642   9 t-inv F
 -0.000000  0.444444 -0.000000    0.00308642   9 t-inv F
  0.500000 -0.500000 -0.000000    0.00308642  10 t-inv F
  0.000000 -0.500000  0.000000    0.00308642  10 t-inv F
 -0.055556 -0.055556 -0.000000    0.00308642  11 t-inv F
  0.055556 -0.111111 -0.000000    0.00308642  11 t-inv F
 -0.055556  0.111111  0.000000    0.00308642  11 t-inv F
 -0.111111  0.055556  0.000000    0.00308642  11 t-inv F
  0.111111 -0.055556 -0.000000    0.00308642  11 t-inv F
 -0.111111 -0.055556 -0.000000    0.00308642  12 t-inv F
  0.111111 -0.166667 -0.000000    0.00308642  12 t-inv F
 -0.111111  0.166667  0.000000    0.00308642  12 t-inv F
 -0.166667  0.111111  0.000000    0.00308642  12 t-inv F
  0.166667 -0.111111 -0.000000    0.00308642  12 t-inv F
  0.055556 -0.166667  0.000000    0.00308642  12 t-inv F
 -0.055556  0.166667 -0.000000    0.00308642  12 t-inv F
 -0.166667  0.055556 -0.000000    0.00308642  12 t-inv F
  0.166667 -0.055556  0.000000    0.00308642  12 t-inv F
  0.055556  0.111111 -0.000000    0.00308642  12 t-inv F
 -0.055556 -0.111111  0.000000    0.00308642  12 t-inv F
 -0.166667 -0.055556 -0.000000    0.00308642  13 t-inv F
  0.166667 -0.222222 -0.000000    0.00308642  13 t-inv F
 -0.166667  0.222222  0.000000    0.00308642  13 t-inv F
 -0.222222  0.166667  0.000000    0.00308642  13 t-inv F
  0.222222 -0.166667 -0.000000    0.00308642  13 t-inv F
  0.055556 -0.222222  0.000000    0.00308642  13 t-inv F
 -0.055556  0.222222 -0.000000    0.00308642  13 t-inv F
 -0.222222  0.055556 -0.000000    0.00308642  13 t-inv F
  0.222222 -0.055556  0.000000    0.00308642  13 t-inv F
  0.055556  0.166667 -0.000000    0.00308642  13 t-inv F
 -0.055556 -0.166667  0.000000    0.00308642  13 t-inv F
 -0.222222 -0.055556 -0.000000    0.00308642  14 t-inv F
  0.222222 -0.277778 -0.000000    0.00308642  14 t-inv F
 -0.222222  0.277778  0.000000    0.00308642  14 t-inv F
 -0.277778  0.222222  0.000000    0.00308642  14 t-inv F
  0.277778 -0.222222 -0.000000    0.00308642  14 t-inv F
  0.055556 -0.277778  0.000000    0.00308642  14 t-inv F
 -0.055556  0.277778 -0.000000    0.00308642  14 t-inv F
 -0.277778  0.055556 -0.000000    0.00308642  14 t-inv F
  0.277778 -0.055556  0.000000    0.00308642  14 t-inv F
  0.055556  0.222222 -0.000000    0.00308642  14 t-inv F
 -0.055556 -0.222222  0.000000    0.00308642  14 t-inv F
 -0.277778 -0.055556 -0.000000    0.00308642  15 t-inv F
  0.277778 -0.333333 -0.000000    0.00308642  15 t-inv F
 -0.277778  0.333333  0.000000    0.00308642  15 t-inv F
 -0.333333  0.277778  0.000000    0.00308642  15 t-inv F
  0.333333 -0.277778 -0.000000    0.00308642  15 t-inv F
  0.055556 -0.333333  0.000000    0.00308642  15 t-inv F
 -0.055556  0.333333 -0.000000    0.00308642  15 t-inv F
 -0.333333  0.055556 -0.000000    0.00308642  15 t-inv F
  0.333333 -0.055556  0.000000    0.00308642  15 t-inv F
  0.055556  0.277778 -0.000000    0.00308642  15 t-inv F
 -0.055556 -0.277778  0.000000    0.00308642  15 t-inv F
 -0.333333 -0.055556 -0.000000    0.00308642  16 t-inv F
  0.333333 -0.388889 -0.000000    0.00308642  16 t-inv F
 -0.333333  0.388889  0.000000    0.00308642  16 t-inv F
 -0.388889  0.333333  0.000000    0.00308642  16 t-inv F
  0.388889 -0.333333 -0.000000    0.00308642  16 t-inv F
  0.055556 -0.388889  0.000000    0.00308642  16 t-inv F
 -0.055556  0.388889 -0.000000    0.00308642  16 t-inv F
 -0.388889  0.055556 -0.000000    0.00308642  16 t-inv F
  0.388889 -0.055556  0.000000    0.00308642  16 t-inv F
  0.055556  0.333333 -0.000000    0.00308642  16 t-inv F
 -0.055556 -0.333333  0.000000    0.00308642  16 t-inv F
 -0.388889 -0.055556 -0.000000    0.00308642  17 t-inv F
  0.388889 -0.444444 -0.000000    0.00308642  17 t-inv F
 -0.388889  0.444444  0.000000    0.00308642  17 t-inv F
 -0.444444  0.388889  0.000000    0.00308642  17 t-inv F
  0.444444 -0.388889 -0.000000    0.00308642  17 t-inv F
  0.055556 -0.444444  0.000000    0.00308642  17 t-inv F
 -0.055556  0.444444 -0.000000    0.00308642  17 t-inv F
 -0.444444  0.055556 -0.000000    0.00308642  17 t-inv F
  0.444444 -0.055556  0.000000    0.00308642  17 t-inv F
  0.055556  0.388889 -0.000000    0.00308642  17 t-inv F
 -0.055556 -0.388889  0.000000    0.00308642  17 t-inv F
 -0.444444 -0.055556 -0.000000    0.00308642  18 t-inv F
  0.444444 -0.500000 -0.000000    0.00308642  18 t-inv F
 -0.444444  0.500000  0.000000    0.00308642  18 t-inv F
 -0.500000  0.444444  0.000000    0.00308642  18 t-inv F
  0.500000 -0.444444 -0.000000    0.00308642  18 t-inv F
  0.055556 -0.500000  0.000000    0.00308642  18 t-inv F
 -0.055556  0.500000 -0.000000    0.00308642  18 t-inv F
 -0.500000  0.055556 -0.000000    0.00308642  18 t-inv F
  0.500000 -0.055556  0.000000    0.00308642  18 t-inv F
  0.055556  0.444444 -0.000000    0.00308642  18 t-inv F
 -0.055556 -0.444444  0.000000    0.00308642  18 t-inv F
 -0.111111 -0.111111 -0.000000    0.00308642  19 t-inv F
  0.111111 -0.222222 -0.000000    0.00308642  19 t-inv F
 -0.111111  0.222222  0.000000    0.00308642  19 t-inv F
 -0.222222  0.111111  0.000000    0.00308642  19 t-inv F
  0.222222 -0.111111 -0.000000    0.00308642  19 t-inv F
 -0.166667 -0.111111 -0.000000    0.00308642  20 t-inv F
  0.166667 -0.277778 -0.000000    0.00308642  20 t-inv F
 -0.166667  0.277778  0.000000    0.00308642  20 t-inv F
 -0.277778  0.166667  0.000000    0.00308642  20 t-inv F
  0.277778 -0.166667 -0.000000    0.00308642  20 t-inv F
  0.111111 -0.277778  0.000000    0.00308642  20 t-inv F
 -0.111111  0.277778 -0.000000    0.00308642  20 t-inv F
 -0.277778  0.111111 -0.000000    0.00308642  20 t-inv F
  0.277778 -0.111111  0.000000    0.00308642  20 t-inv F
  0.111111  0.166667 -0.000000    0.00308642  20 t-inv F
 -0.111111 -0.166667  0.000000    0.00308642  20 t-inv F
 -0.222222 -0.111111 -0.000000    0.00308642  21 t-inv F
  0.222222 -0.333333 -0.000000    0.00308642  21 t-inv F
 -0.222222  0.333333  0.000000    0.00308642  21 t-inv F
 -0.333333  0.222222  0.000000    0.00308642  21 t-inv F
  0.333333 -0.222222 -0.000000    0.00308642  21 t-inv F
  0.111111 -0.333333  0.000000    0.00308642  21 t-inv F
 -0.111111  0.333333 -0.000000    0.00308642  21 t-inv F
 -0.333333  0.111111 -0.000000    0.00308642  21 t-inv F
  0.333333 -0.111111  0.000000    0.00308642  21 t-inv F
  0.111111  0.222222 -0.000000    0.00308642  21 t-inv F
 -0.111111 -0.222222  0.000000    0.00308642  21 t-inv F
 -0.277778 -0.111111 -0.000000    0.00308642  22 t-inv F
  0.277778 -0.388889 -0.000000    0.00308642  22 t-inv F
 -0.277778  0.388889  0.000000    0.00308642  22 t-inv F
 -0.388889  0.277778  0.000000    0.00308642  22 t-inv F
  0.388889 -0.277778 -0.000000    0.00308642  22 t-inv F
  0.111111 -0.388889  0.000000    0.00308642  22 t-inv F
 -0.111111  0.388889 -0.000000    0.00308642  22 t-inv F
 -0.388889  0.111111 -0.000000    0.00308642  22 t-inv F
  0.388889 -0.111111  0.000000    0.00308642  22 t-inv F
  0.111111  0.277778 -0.000000    0.00308642  22 t-inv F
 -0.111111 -0.277778  0.000000    0.00308642  22 t-inv F
 -0.333333 -0.111111 -0.000000    0.00308642  23 t-inv F
  0.333333 -0.444444 -0.000000    0.00308642  23 t-inv F
 -0.333333  0.444444  0.000000    0.00308642  23 t-inv F
 -0.444444  0.333333  0.000000    0.00308642  23 t-inv F
  0.444444 -0.333333 -0.000000    0.00308642  23 t-inv F
  0.111111 -0.444444  0.000000    0.00308642  23 t-inv F
 -0.111111  0.444444 -0.000000    0.00308642  23 t-inv F
 -0.444444  0.111111 -0.000000    0.00308642  23 t-inv F
  0.444444 -0.111111  0.000000    0.00308642  23 t-inv F
  0.111111  0.333333 -0.000000    0.00308642  23 t-inv F
 -0.111111 -0.333333  0.000000    0.00308642  23 t-inv F
 -0.388889 -0.111111 -0.000000    0.00308642  24 t-inv F
  0.388889 -0.500000 -0.000000    0.00308642  24 t-inv F
 -0.388889  0.500000  0.000000    0.00308642  24 t-inv F
 -0.500000  0.388889  0.000000    0.00308642  24 t-inv F
  0.500000 -0.388889 -0.000000    0.00308642  24 t-inv F
  0.111111 -0.500000  0.000000    0.00308642  24 t-inv F
 -0.111111  0.500000 -0.000000    0.00308642  24 t-inv F
 -0.500000  0.111111 -0.000000    0.00308642  24 t-inv F
  0.500000 -0.111111  0.000000    0.00308642  24 t-inv F
  0.111111  0.388889 -0.000000    0.00308642  24 t-inv F
 -0.111111 -0.388889  0.000000    0.00308642  24 t-inv F
 -0.444444 -0.111111 -0.000000    0.00308642  25 t-inv F
  0.444444 -0.555556 -0.000000    0.00308642  25 t-inv F
 -0.444444  0.555556  0.000000    0.00308642  25 t-inv F
  0.111111 -0.555556  0.000000    0.00308642  25 t-inv F
 -0.111111  0.555556 -0.000000    0.00308642  25 t-inv F
 -0.166667 -0.166667 -0.000000    0.00308642  26 t-inv F
  0.166667 -0.333333 -0.000000    0.00308642  26 t-inv F
 -0.166667  0.333333  0.000000    0.00308642  26 t-inv F
 -0.333333  0.166667  0.000000    0.00308642  26 t-inv F
  0.333333 -0.166667 -0.000000    0.00308642  26 t-inv F
 -0.222222 -0.166667 -0.000000    0.00308642  27 t-inv F
  0.222222 -0.388889 -0.000000    0.00308642  27 t-inv F
 -0.222222  0.388889  0.000000    0.00308642  27 t-inv F
 -0.388889  0.222222  0.000000    0.00308642  27 t-inv F
  0.388889 -0.222222 -0.000000    0.00308642  27 t-inv F
  0.166667 -0.388889  0.000000    0.00308642  27 t-inv F
 -0.166667  0.388889 -0.000000    0.00308642  27 t-inv F
 -0.388889  0.166667 -0.000000    0.00308642  27 t-inv F
  0.388889 -0.166667  0.000000    0.00308642  27 t-inv F
  0.166667  0.222222 -0.000000    0.00308642  27 t-inv F
 -0.166667 -0.222222  0.000000    0.00308642  27 t-inv F
 -0.277778 -0.166667 -0.000000    0.00308642  28 t-inv F
  0.277778 -0.444444 -0.000000    0.00308642  28 t-inv F
 -0.277778  0.444444  0.000000    0.00308642  28 t-inv F
 -0.444444  0.277778  0.000000    0.00308642  28 t-inv F
  0.444444 -0.277778 -0.000000    0.00308642  28 t-inv F
  0.166667 -0.444444  0.000000    0.00308642  28 t-inv F
 -0.166667  0.444444 -0.000000    0.00308642  28 t-inv F
 -0.444444  0.166667 -0.000000    0.00308642  28 t-inv F
  0.444444 -0.166667  0.000000    0.00308642  28 t-inv F
  0.166667  0.277778 -0.000000    0.00308642  28 t-inv F
 -0.166667 -0.277778  0.000000    0.00308642  28 t-inv F
 -0.333333 -0.166667 -0.000000    0.00308642  29 t-inv F
  0.333333 -0.500000 -0.000000    0.00308642  29 t-inv F
 -0.333333  0.500000  0.000000    0.00308642  29 t-inv F
 -0.500000  0.333333  0.000000    0.00308642  29 t-inv F
  0.500000 -0.333333 -0.000000    0.00308642  29 t-inv F
  0.166667 -0.500000  0.000000    0.00308642  29 t-inv F
 -0.166667  0.500000 -0.000000    0.00308642  29 t-inv F
 -0.500000  0.166667 -0.000000    0.00308642  29 t-inv F
  0.500000 -0.166667  0.000000    0.00308642  29 t-inv F
  0.166667  0.333333 -0.000000    0.00308642  29 t-inv F
 -0.166667 -0.333333  0.000000    0.00308642  29 t-inv F
 -0.388889 -0.166667 -0.000000    0.00308642  30 t-inv F
  0.388889 -0.555556 -0.000000    0.00308642  30 t-inv F
 -0.388889  0.555556  0.000000    0.00308642  30 t-inv F
 -0.555556  0.388889  0.000000    0.00308642  30 t-inv F
  0.555556 -0.388889 -0.000000    0.00308642  30 t-inv F
  0.166667 -0.555556  0.000000    0.00308642  30 t-inv F
 -0.166667  0.555556 -0.000000    0.00308642  30 t-inv F
 -0.555556  0.166667 -0.000000    0.00308642  30 t-inv F
  0.555556 -0.166667  0.000000    0.00308642  30 t-inv F
  0.166667  0.388889 -0.000000    0.00308642  30 t-inv F
 -0.166667 -0.388889  0.000000    0.00308642  30 t-inv F
 -0.222222 -0.222222 -0.000000    0.00308642  31 t-inv F
  0.222222 -0.444444 -0.000000    0.00308642  31 t-inv F
 -0.222222  0.444444  0.000000    0.00308642  31 t-inv F
 -0.444444  0.222222  0.000000    0.00308642  31 t-inv F
  0.444444 -0.222222 -0.000000    0.00308642  31 t-inv F
 -0.277778 -0.222222 -0.000000    0.00308642  32 t-inv F
  0.277778 -0.500000 -0.000000    0.00308642  32 t-inv F
 -0.277778  0.500000  0.000000    0.00308642  32 t-inv F
 -0.500000  0.277778  0.000000    0.00308642  32 t-inv F
  0.500000 -0.277778 -0.000000    0.00308642  32 t-inv F
  0.222222 -0.500000  0.000000    0.00308642  32 t-inv F
 -0.222222  0.500000 -0.000000    0.00308642  32 t-inv F
 -0.500000  0.222222 -0.000000    0.00308642  32 t-inv F
  0.500000 -0.222222  0.000000    0.00308642  32 t-inv F
  0.222222  0.277778 -0.000000    0.00308642  32 t-inv F
 -0.222222 -0.277778  0.000000    0.00308642  32 t-inv F
 -0.333333 -0.222222 -0.000000    0.00308642  33 t-inv F
  0.333333 -0.555556 -0.000000    0.00308642  33 t-inv F
 -0.333333  0.555556  0.000000    0.00308642  33 t-inv F
 -0.555556  0.333333  0.000000    0.00308642  33 t-inv F
  0.555556 -0.333333 -0.000000    0.00308642  33 t-inv F
  0.222222 -0.555556  0.000000    0.00308642  33 t-inv F
 -0.222222  0.555556 -0.000000    0.00308642  33 t-inv F
 -0.555556  0.222222 -0.000000    0.00308642  33 t-inv F
  0.555556 -0.222222  0.000000    0.00308642  33 t-inv F
  0.222222  0.333333 -0.000000    0.00308642  33 t-inv F
 -0.222222 -0.333333  0.000000    0.00308642  33 t-inv F
 -0.388889 -0.222222 -0.000000    0.00308642  34 t-inv F
  0.388889 -0.611111 -0.000000    0.00308642  34 t-inv F
 -0.388889  0.611111  0.000000    0.00308642  34 t-inv F
  0.222222 -0.611111  0.000000    0.00308642  34 t-inv F
 -0.222222  0.611111 -0.000000    0.00308642  34 t-inv F
 -0.277778 -0.277778 -0.000000    0.00308642  35 t-inv F
  0.277778 -0.555556 -0.000000    0.00308642  35 t-inv F
 -0.277778  0.555556  0.000000    0.00308642  35 t-inv F
 -0.555556  0.277778  0.000000    0.00308642  35 t-inv F
  0.555556 -0.277778 -0.000000    0.00308642  35 t-inv F
 -0.333333 -0.277778 -0.000000    0.00308642  36 t-inv F
  0.333333 -0.611111 -0.000000    0.00308642  36 t-inv F
 -0.333333  0.611111  0.000000    0.00308642  36 t-inv F
 -0.611111  0.333333  0.000000    0.00308642  36 t-inv F
  0.611111 -0.333333 -0.000000    0.00308642  36 t-inv F
  0.277778 -0.611111  0.000000    0.00308642  36 t-inv F
 -0.277778  0.611111 -0.000000    0.00308642  36 t-inv F
 -0.611111  0.277778 -0.000000    0.00308642  36 t-inv F
  0.611111 -0.277778  0.000000    0.00308642  36 t-inv F
  0.277778  0.333333 -0.000000    0.00308642  36 t-inv F
 -0.277778 -0.333333  0.000000    0.00308642  36 t-inv F
 -0.333333 -0.333333 -0.000000    0.00308642  37 t-inv F


--------------------------------------------------------------------------------------------------------




 Dimension of arrays:
   k-points           NKPTS =     37   k-points in BZ     NKDIM =     37   number of bands    NBANDS=    112
   number of dos      NEDOS =    301   number of ions     NIONS =     18
   non local maximal  LDIM  =     11   non local SUM 2l+1 LMDIM =     41
   total plane-waves  NPLWV = 184320
   max r-space proj   IRMAX =      1   max aug-charges    IRDMAX=  19872
   dimension x,y,z NGX =    24 NGY =   24 NGZ =  320
   dimension x,y,z NGXF=    48 NGYF=   48 NGZF=  640
   support grid    NGXF=    48 NGYF=   48 NGZF=  640
   ions per type =               6  12
 NGX,Y,Z   is equivalent  to a cutoff of  11.25, 11.25, 10.64 a.u.
 NGXF,Y,Z  is equivalent  to a cutoff of  22.49, 22.49, 21.28 a.u.


 I would recommend the setting:
   dimension x,y,z NGX =    21 NGY =   21 NGZ =  303
 SYSTEM =  unknown system                          
 POSCAR =  Mo Te                                   

 Startparameter for this run:
   NWRITE =      2    write-flag & timer
   PREC   = accura    normal or accurate (medium, high low for compatibility)
   ISTART =      0    job   : 0-new  1-cont  2-samecut
   ICHARG =      2    charge: 1-file 2-atom 10-const
   ISPIN  =      1    spin polarized calculation?
   LNONCOLLINEAR =      F non collinear calculations
   LSORBIT =      F    spin-orbit coupling
   INIWAV =      1    electr: 0-lowe 1-rand  2-diag
   LASPH  =      F    aspherical Exc in radial PAW
   METAGGA=      F    non-selfconsistent MetaGGA calc.

 Electronic Relaxation 1
   ENCUT  =  344.9 eV  25.35 Ry    5.03 a.u.   5.37  5.37 75.72*2*pi/ulx,y,z
   ENINI  =  344.9     initial cutoff
   ENAUG  =  964.7 eV  augmentation charge cutoff
   NELM   =     60;   NELMIN=  5; NELMDL= -5     # of ELM steps 
   EDIFF  = 0.1E-07   stopping-criterion for ELM
   LREAL  =      F    real-space projection
   NLSPLINE    = F    spline interpolate recip. space projectors
   LCOMPAT=      F    compatible to vasp.4.4
   GGA_COMPAT  = T    GGA compatible to vasp.4.4-vasp.4.6
   LMAXPAW     = -100 max onsite density
   LMAXMIX     =    2 max onsite mixed and CHGCAR
   VOSKOWN=      0    Vosko Wilk Nusair interpolation
   ROPT   =    0.00000   0.00000
 Ionic relaxation
   EDIFFG = 0.1E-06   stopping-criterion for IOM
   NSW    =      0    number of steps for IOM
   NBLOCK =      1;   KBLOCK =      1    inner block; outer block 
   IBRION =     -1    ionic relax: 0-MD 1-quasi-New 2-CG
   NFREE  =      0    steps in history (QN), initial steepest desc. (CG)
   ISIF   =      2    stress and relaxation
   IWAVPR =     10    prediction:  0-non 1-charg 2-wave 3-comb
   ISYM   =      2    0-nonsym 1-usesym 2-fastsym
   LCORR  =      T    Harris-Foulkes like correction to forces

   POTIM  = 0.5000    time-step for ionic-motion
   TEIN   =    0.0    initial temperature
   TEBEG  =    0.0;   TEEND  =   0.0 temperature during run
   SMASS  =  -3.00    Nose mass-parameter (am)
   estimated Nose-frequenzy (Omega)   =  0.10E-29 period in steps =****** mass=  -0.288E-27a.u.
   SCALEE = 1.0000    scale energy and forces
   NPACO  =    256;   APACO  = 16.0  distance and # of slots for P.C.
   PSTRESS=    0.0 pullay stress

  Mass of Ions in am
   POMASS =  95.94127.60
  Ionic Valenz
   ZVAL   =  14.00  6.00
  Atomic Wigner-Seitz radii
   RWIGS  =  -1.00 -1.00
  virtual crystal weights 
   VCA    =   1.00  1.00
   NELECT =     156.0000    total number of electrons
   NUPDOWN=      -1.0000    fix difference up-down

 DOS related values:
   EMIN   =  10.00;   EMAX   =-10.00  energy-range for DOS
   EFERMI =   0.00
   ISMEAR =    -5;   SIGMA  =   0.01  broadening in eV -4-tet -1-fermi 0-gaus

 Electronic relaxation 2 (details)
   IALGO  =     38    algorithm
   LDIAG  =      T    sub-space diagonalisation (order eigenvalues)
   LSUBROT=      F    optimize rotation matrix (better conditioning)
   TURBO    =      0    0=normal 1=particle mesh
   IRESTART =      0    0=no restart 2=restart with 2 vectors
   NREBOOT  =      0    no. of reboots
   NMIN     =      0    reboot dimension
   EREF     =   0.00    reference energy to select bands
   IMIX   =      4    mixing-type and parameters
     AMIX     =   0.40;   BMIX     =  1.00
     AMIX_MAG =   1.60;   BMIX_MAG =  1.00
     AMIN     =   0.10
     WC   =   100.;   INIMIX=   1;  MIXPRE=   1;  MAXMIX= -45

 Intra band minimization:
   WEIMIN = 0.0000     energy-eigenvalue tresh-hold
   EBREAK =  0.22E-10  absolut break condition
   DEPER  =   0.30     relativ break condition  

   TIME   =   0.40     timestep for ELM

  volume/ion in A,a.u.               =      30.27       204.29
  Fermi-wavevector in a.u.,A,eV,Ry     =   1.078972  2.038961 15.839626  1.164180
  Thomas-Fermi vector in A             =   2.214924
 
 Write flags
   LWAVE  =      T    write WAVECAR
   LCHARG =      T    write CHGCAR
   LVTOT  =      F    write LOCPOT, total local potential
   LVHAR  =      F    write LOCPOT, Hartree potential only
   LELF   =      F    write electronic localiz. function (ELF)
   LORBIT =      0    0 simple, 1 ext, 2 COOP (PROOUT)


 Dipole corrections
   LMONO  =      F    monopole corrections only (constant potential shift)
   LDIPOL =      F    correct potential (dipole corrections)
   IDIPOL =      0    1-x, 2-y, 3-z, 4-all directions 
   EPSILON=  1.0000000 bulk dielectric constant

 Exchange correlation treatment:
   GGA     =    PE    GGA type
   LEXCH   =     8    internal setting for exchange type
   VOSKOWN=      0    Vosko Wilk Nusair interpolation
   LHFCALC =     F    Hartree Fock is set to
   LHFONE  =     F    Hartree Fock one center treatment
   AEXX    =    0.0000 exact exchange contribution

 Linear response parameters
   LEPSILON=     T    determine dielectric tensor
   LRPA    =     F    only Hartree local field effects (RPA)
   LNABLA  =     F    use nabla operator in PAW spheres
   LVEL    =     F    velocity operator in full k-point grid
   LINTERFAST=   F  fast interpolation
   KINTER  =     0    interpolate to denser k-point grid
   CSHIFT  =0.1000    complex shift for real part using Kramers Kronig
   OMEGAMAX=  -1.0    maximum frequency
   DEG_THRESHOLD= 0.2000000E-02 threshold for treating states as degnerate
   RTIME   =    0.100 relaxation time in fs

 Orbital magnetization related:
   ORBITALMAG=     F  switch on orbital magnetization
   LCHIMAG   =     F  perturbation theory with respect to B field
   DQ        =  0.001000  dq finite difference perturbation B field



--------------------------------------------------------------------------------------------------------


 Static calculation
 charge density and potential will be updated during run
 non-spin polarized calculation
 Variant of blocked Davidson
 Davidson routine will perform the subspace rotation
 perform sub-space diagonalisation
    after iterative eigenvector-optimisation
 modified Broyden-mixing scheme, WC =      100.0
 initial mixing is a Kerker type mixing with AMIX =  0.4000 and BMIX =      1.0000
 Hartree-type preconditioning will be used
 using additional bands           34
 reciprocal scheme for non local part
 use partial core corrections
 calculate Harris-corrections to forces 
   (improved forces if not selfconsistent)
 use gradient corrections 
 use of overlap-Matrix (Vanderbilt PP)
 Fermi weights with tetrahedron method with Bloechl corrections


--------------------------------------------------------------------------------------------------------


  energy-cutoff  :      344.91
  volume of cell :      544.90
      direct lattice vectors                 reciprocal lattice vectors
     3.547392312  0.000000000  0.000000000     0.281897211  0.162753431  0.000000000
    -1.773696156  3.072131859  0.000000000     0.000000000  0.325506862  0.000000000
     0.000000000  0.000000000 50.000000000     0.000000000  0.000000000  0.020000000

  length of vectors
     3.547392312  3.547392312 50.000000000     0.325506862  0.325506862  0.020000000


 
 k-points in units of 2pi/SCALE and weight: KPOINTS created by Atomic Simulation Env
   0.00000000  0.00000000  0.00000000       0.003
   0.01566096  0.00904186  0.00000000       0.019
   0.03132191  0.01808371  0.00000000       0.019
   0.04698287  0.02712557  0.00000000       0.019
   0.06264382  0.03616743  0.00000000       0.019
   0.07830478  0.04520929  0.00000000       0.019
   0.09396574  0.05425114  0.00000000       0.019
   0.10962669  0.06329300  0.00000000       0.019
   0.12528765  0.07233486  0.00000000       0.019
   0.14094861  0.08137672  0.00000000       0.009
   0.01566096  0.02712557  0.00000000       0.019
   0.03132191  0.03616743  0.00000000       0.037
   0.04698287  0.04520929  0.00000000       0.037
   0.06264382  0.05425114  0.00000000       0.037
   0.07830478  0.06329300  0.00000000       0.037
   0.09396574  0.07233486  0.00000000       0.037
   0.10962669  0.08137672  0.00000000       0.037
   0.12528765  0.09041857  0.00000000       0.037
   0.03132191  0.05425114  0.00000000       0.019
   0.04698287  0.06329300  0.00000000       0.037
   0.06264382  0.07233486  0.00000000       0.037
   0.07830478  0.08137672  0.00000000       0.037
   0.09396574  0.09041857  0.00000000       0.037
   0.10962669  0.09946043  0.00000000       0.037
   0.12528765  0.10850229  0.00000000       0.019
   0.04698287  0.08137672  0.00000000       0.019
   0.06264382  0.09041857  0.00000000       0.037
   0.07830478  0.09946043  0.00000000       0.037
   0.09396574  0.10850229  0.00000000       0.037
   0.10962669  0.11754414  0.00000000       0.037
   0.06264382  0.10850229  0.00000000       0.019
   0.07830478  0.11754414  0.00000000       0.037
   0.09396574  0.12658600  0.00000000       0.037
   0.10962669  0.13562786  0.00000000       0.019
   0.07830478  0.13562786  0.00000000       0.019
   0.09396574  0.14466972  0.00000000       0.037
   0.09396574  0.16275343  0.00000000       0.006
 
 k-points in reciprocal lattice and weights: KPOINTS created by Atomic Simulation Env
   0.00000000  0.00000000  0.00000000       0.003
   0.05555556  0.00000000  0.00000000       0.019
   0.11111111  0.00000000  0.00000000       0.019
   0.16666667  0.00000000  0.00000000       0.019
   0.22222222  0.00000000  0.00000000       0.019
   0.27777778  0.00000000  0.00000000       0.019
   0.33333333  0.00000000  0.00000000       0.019
   0.38888889  0.00000000  0.00000000       0.019
   0.44444444  0.00000000  0.00000000       0.019
   0.50000000  0.00000000  0.00000000       0.009
   0.05555556  0.05555556  0.00000000       0.019
   0.11111111  0.05555556  0.00000000       0.037
   0.16666667  0.05555556  0.00000000       0.037
   0.22222222  0.05555556  0.00000000       0.037
   0.27777778  0.05555556  0.00000000       0.037
   0.33333333  0.05555556  0.00000000       0.037
   0.38888889  0.05555556  0.00000000       0.037
   0.44444444  0.05555556  0.00000000       0.037
   0.11111111  0.11111111  0.00000000       0.019
   0.16666667  0.11111111  0.00000000       0.037
   0.22222222  0.11111111  0.00000000       0.037
   0.27777778  0.11111111  0.00000000       0.037
   0.33333333  0.11111111  0.00000000       0.037
   0.38888889  0.11111111  0.00000000       0.037
   0.44444444  0.11111111  0.00000000       0.019
   0.16666667  0.16666667  0.00000000       0.019
   0.22222222  0.16666667  0.00000000       0.037
   0.27777778  0.16666667  0.00000000       0.037
   0.33333333  0.16666667  0.00000000       0.037
   0.38888889  0.16666667  0.00000000       0.037
   0.22222222  0.22222222  0.00000000       0.019
   0.27777778  0.22222222  0.00000000       0.037
   0.33333333  0.22222222  0.00000000       0.037
   0.38888889  0.22222222  0.00000000       0.019
   0.27777778  0.27777778  0.00000000       0.019
   0.33333333  0.27777778  0.00000000       0.037
   0.33333333  0.33333333  0.00000000       0.006
 
 position of ions in fractional coordinates (direct lattice) 
   0.16666667  0.33333333  0.15100000
   0.83333333  0.66666667  0.29060000
   0.16666667  0.33333333  0.43020000
   0.83333333  0.66666667  0.56980000
   0.16666667  0.33333333  0.70940000
   0.83333333  0.66666667  0.84900000
   0.83333333  0.66666667  0.18710200
   0.83333333  0.66666667  0.11489800
   0.16666667  0.33333333  0.32670200
   0.16666667  0.33333333  0.25449800
   0.83333333  0.66666667  0.46630200
   0.83333333  0.66666667  0.39409800
   0.16666667  0.33333333  0.60590200
   0.16666667  0.33333333  0.53369800
   0.83333333  0.66666667  0.74550200
   0.83333333  0.66666667  0.67329800
   0.16666667  0.33333333  0.88510200
   0.16666667  0.33333333  0.81289800
 
 position of ions in cartesian coordinates  (Angst):
  -0.00000000  1.02404395  7.55000000
   1.77369616  2.04808791 14.53000000
  -0.00000000  1.02404395 21.51000000
   1.77369616  2.04808791 28.49000000
  -0.00000000  1.02404395 35.47000000
   1.77369616  2.04808791 42.45000000
   1.77369616  2.04808791  9.35510000
   1.77369616  2.04808791  5.74490000
  -0.00000000  1.02404395 16.33510000
  -0.00000000  1.02404395 12.72490000
   1.77369616  2.04808791 23.31510000
   1.77369616  2.04808791 19.70490000
  -0.00000000  1.02404395 30.29510000
  -0.00000000  1.02404395 26.68490000
   1.77369616  2.04808791 37.27510000
   1.77369616  2.04808791 33.66490000
  -0.00000000  1.02404395 44.25510000
  -0.00000000  1.02404395 40.64490000
 


--------------------------------------------------------------------------------------------------------


 k-point  1 :   0.0000 0.0000 0.0000  plane waves:    8059
 k-point  2 :   0.0556 0.0000 0.0000  plane waves:    8047
 k-point  3 :   0.1111 0.0000 0.0000  plane waves:    7995
 k-point  4 :   0.1667 0.0000 0.0000  plane waves:    7981
 k-point  5 :   0.2222 0.0000 0.0000  plane waves:    7967
 k-point  6 :   0.2778 0.0000 0.0000  plane waves:    7949
 k-point  7 :   0.3333 0.0000 0.0000  plane waves:    7895
 k-point  8 :   0.3889 0.0000 0.0000  plane waves:    7892
 k-point  9 :   0.4444 0.0000 0.0000  plane waves:    7900
 k-point 10 :   0.5000 0.0000 0.0000  plane waves:    7892
 k-point 11 :   0.0556 0.0556 0.0000  plane waves:    7977
 k-point 12 :   0.1111 0.0556 0.0000  plane waves:    7993
 k-point 13 :   0.1667 0.0556 0.0000  plane waves:    7982
 k-point 14 :   0.2222 0.0556 0.0000  plane waves:    7962
 k-point 15 :   0.2778 0.0556 0.0000  plane waves:    7921
 k-point 16 :   0.3333 0.0556 0.0000  plane waves:    7897
 k-point 17 :   0.3889 0.0556 0.0000  plane waves:    7896
 k-point 18 :   0.4444 0.0556 0.0000  plane waves:    7906
 k-point 19 :   0.1111 0.1111 0.0000  plane waves:    7975
 k-point 20 :   0.1667 0.1111 0.0000  plane waves:    7970
 k-point 21 :   0.2222 0.1111 0.0000  plane waves:    7936
 k-point 22 :   0.2778 0.1111 0.0000  plane waves:    7914
 k-point 23 :   0.3333 0.1111 0.0000  plane waves:    7914
 k-point 24 :   0.3889 0.1111 0.0000  plane waves:    7888
 k-point 25 :   0.4444 0.1111 0.0000  plane waves:    7900
 k-point 26 :   0.1667 0.1667 0.0000  plane waves:    7935
 k-point 27 :   0.2222 0.1667 0.0000  plane waves:    7910
 k-point 28 :   0.2778 0.1667 0.0000  plane waves:    7913
 k-point 29 :   0.3333 0.1667 0.0000  plane waves:    7908
 k-point 30 :   0.3889 0.1667 0.0000  plane waves:    7908
 k-point 31 :   0.2222 0.2222 0.0000  plane waves:    7893
 k-point 32 :   0.2778 0.2222 0.0000  plane waves:    7891
 k-point 33 :   0.3333 0.2222 0.0000  plane waves:    7911
 k-point 34 :   0.3889 0.2222 0.0000  plane waves:    7894
 k-point 35 :   0.2778 0.2778 0.0000  plane waves:    7895
 k-point 36 :   0.3333 0.2778 0.0000  plane waves:    7895
 k-point 37 :   0.3333 0.3333 0.0000  plane waves:    7902

 maximum and minimum number of plane-waves per node :      8059     7888

 maximum number of plane-waves:      8059
 maximum index in each direction: 
   IXMAX=    5   IYMAX=    5   IZMAX=   75
   IXMIN=   -5   IYMIN=   -5   IZMIN=  -75

 NGX is ok and might be reduce to  22
 NGY is ok and might be reduce to  22
 NGZ is ok and might be reduce to 302

 serial   3D FFT for wavefunctions
 parallel 3D FFT for charge:
    minimum data exchange during FFTs selected (reduces bandwidth)


 total amount of memory used by VASP on root node   263292. kBytes
========================================================================

   base      :      30000. kBytes
   nonl-proj :     198051. kBytes
   fftplans  :       2737. kBytes
   grid      :      10830. kBytes
   one-center:       1452. kBytes
   wavefun   :      20222. kBytes
 
     INWAV:  cpu time    0.0000: real time    0.0001
 Broyden mixing: mesh for mixing (old mesh)
   NGX = 11   NGY = 11   NGZ =151
  (NGX  = 48   NGY  = 48   NGZ  =640)
  gives a total of  18271 points

 initial charge density was supplied:
 charge density of overlapping atoms calculated
 number of electron     156.0000000 magnetization 
 keeping initial charge density in first step


--------------------------------------------------------------------------------------------------------


 Maximum index for augmentation-charges         1088 (set IRDMAX)


--------------------------------------------------------------------------------------------------------


 First call to EWALD:  gamma=   0.217
 Maximum number of real-space cells 6x 6x 1
 Maximum number of reciprocal cells 1x 1x14

 FEWALD executed in parallel
    FEWALD:  cpu time    0.0080: real time    0.0087


----------------------------------------- Iteration    1(   1)  ---------------------------------------


    POTLOK:  cpu time    0.2830: real time    0.2851
    SETDIJ:  cpu time    0.0650: real time    0.0643
     EDDAV:  cpu time   95.4515: real time   99.0538
 BZINTS: Fermi energy: 16.812943;156.000000 electrons
         Band energy:-267.682501;  BLOECHL correction: -0.116554
       DOS:  cpu time    0.2610: real time    0.2621
    --------------------------------------------
      LOOP:  cpu time   96.0674: real time   99.6793

 eigenvalue-minimisations  :  9912
 total energy-change (2. order) : 0.1025320E+04  (-0.6359199E+04)
 number of electron     156.0000000 magnetization 
 augmentation part      156.0000000 magnetization 

 Free energy of the ion-electron system (eV)
  ---------------------------------------------------
  alpha Z        PSCENC =       248.44899081
  Ewald energy   TEWEN  =     15430.52038397
  -Hartree energ DENC   =    -28786.81630322
  -exchange      EXHF   =         0.00000000
  -V(xc)+E(xc)   XCENC  =        64.21739973
  PAW double counting   =     11545.43596363   -11056.49430171
  entropy T*S    EENTRO =         0.00000000
  eigenvalues    EBANDS =      -267.68250061
  atomic energy  EATOM  =     13847.69041634
  Solvation  Ediel_sol  =         0.00000000
  ---------------------------------------------------
  free energy    TOTEN  =      1025.32004894 eV

  energy without entropy =     1025.32004894  energy(sigma->0) =     1025.32004894


--------------------------------------------------------------------------------------------------------




----------------------------------------- Iteration    1(   2)  ---------------------------------------


     EDDAV:  cpu time  125.7409: real time  130.2336
 BZINTS: Fermi energy:  8.566141;156.000000 electrons
         Band energy:***********;  BLOECHL correction:  0.000000
       DOS:  cpu time    0.0470: real time    0.0471
    --------------------------------------------
      LOOP:  cpu time  125.8599: real time  130.4031

 eigenvalue-minimisations  : 13636
 total energy-change (2. order) :-0.1067672E+04  (-0.1031684E+04)
 number of electron     156.0000000 magnetization 
 augmentation part      156.0000000 magnetization 

 Free energy of the ion-electron system (eV)
  ---------------------------------------------------
  alpha Z        PSCENC =       248.44899081
  Ewald energy   TEWEN  =     15430.52038397
  -Hartree energ DENC   =    -28786.81630322
  -exchange      EXHF   =         0.00000000
  -V(xc)+E(xc)   XCENC  =        64.21739973
  PAW double counting   =     11545.43596363   -11056.49430171
  entropy T*S    EENTRO =         0.00000000
  eigenvalues    EBANDS =     -1335.35415302
  atomic energy  EATOM  =     13847.69041634
  Solvation  Ediel_sol  =         0.00000000
  ---------------------------------------------------
  free energy    TOTEN  =       -42.35160347 eV

  energy without entropy =      -42.35160347  energy(sigma->0) =      -42.35160347


--------------------------------------------------------------------------------------------------------




----------------------------------------- Iteration    1(   3)  ---------------------------------------


     EDDAV:  cpu time  110.0023: real time  113.1313
 BZINTS: Fermi energy:  7.023323;156.000000 electrons
         Band energy:***********;  BLOECHL correction:  0.000000
       DOS:  cpu time    0.0450: real time    0.0457
    --------------------------------------------
      LOOP:  cpu time  110.0523: real time  113.2096

 eigenvalue-minimisations  : 11704
 total energy-change (2. order) :-0.8000915E+02  (-0.7809553E+02)
 number of electron     156.0000000 magnetization 
 augmentation part      156.0000000 magnetization 

 Free energy of the ion-electron system (eV)
  ---------------------------------------------------
  alpha Z        PSCENC =       248.44899081
  Ewald energy   TEWEN  =     15430.52038397
  -Hartree energ DENC   =    -28786.81630322
  -exchange      EXHF   =         0.00000000
  -V(xc)+E(xc)   XCENC  =        64.21739973
  PAW double counting   =     11545.43596363   -11056.49430171
  entropy T*S    EENTRO =         0.00000000
  eigenvalues    EBANDS =     -1415.36330075
  atomic energy  EATOM  =     13847.69041634
  Solvation  Ediel_sol  =         0.00000000
  ---------------------------------------------------
  free energy    TOTEN  =      -122.36075121 eV

  energy without entropy =     -122.36075121  energy(sigma->0) =     -122.36075121


--------------------------------------------------------------------------------------------------------




----------------------------------------- Iteration    1(   4)  ---------------------------------------


     EDDAV:  cpu time  129.1624: real time  132.0742
 BZINTS: Fermi energy:  7.027101;156.000000 electrons
         Band energy:***********;  BLOECHL correction:  0.000000
       DOS:  cpu time    0.0510: real time    0.0509
    --------------------------------------------
      LOOP:  cpu time  129.2474: real time  132.1844

 eigenvalue-minimisations  : 14000
 total energy-change (2. order) :-0.4329753E+01  (-0.4268401E+01)
 number of electron     156.0000000 magnetization 
 augmentation part      156.0000000 magnetization 

 Free energy of the ion-electron system (eV)
  ---------------------------------------------------
  alpha Z        PSCENC =       248.44899081
  Ewald energy   TEWEN  =     15430.52038397
  -Hartree energ DENC   =    -28786.81630322
  -exchange      EXHF   =         0.00000000
  -V(xc)+E(xc)   XCENC  =        64.21739973
  PAW double counting   =     11545.43596363   -11056.49430171
  entropy T*S    EENTRO =         0.00000000
  eigenvalues    EBANDS =     -1419.69305348
  atomic energy  EATOM  =     13847.69041634
  Solvation  Ediel_sol  =         0.00000000
  ---------------------------------------------------
  free energy    TOTEN  =      -126.69050393 eV

  energy without entropy =     -126.69050393  energy(sigma->0) =     -126.69050393


--------------------------------------------------------------------------------------------------------




----------------------------------------- Iteration    1(   5)  ---------------------------------------


     EDDAV:  cpu time  109.0234: real time  111.0173
 BZINTS: Fermi energy:  6.954024;156.000000 electrons
         Band energy:***********;  BLOECHL correction:  0.000000
       DOS:  cpu time    0.0490: real time    0.0493
    CHARGE:  cpu time    2.7826: real time    2.8130
    MIXING:  cpu time    0.0090: real time    0.0096
    --------------------------------------------
      LOOP:  cpu time  111.8780: real time  113.9313

 eigenvalue-minimisations  : 11508
 total energy-change (2. order) :-0.1045697E+00  (-0.1041431E+00)
 number of electron     156.0000009 magnetization 
 augmentation part      -17.3234525 magnetization 

 Broyden mixing:
  rms(total) = 0.21565E+01    rms(broyden)= 0.21554E+01
  rms(prec ) = 0.22153E+01
  weight for this iteration     100.00

 Free energy of the ion-electron system (eV)
  ---------------------------------------------------
  alpha Z        PSCENC =       248.44899081
  Ewald energy   TEWEN  =     15430.52038397
  -Hartree energ DENC   =    -28786.81630322
  -exchange      EXHF   =         0.00000000
  -V(xc)+E(xc)   XCENC  =        64.21739973
  PAW double counting   =     11545.43596363   -11056.49430171
  entropy T*S    EENTRO =         0.00000000
  eigenvalues    EBANDS =     -1419.79762318
  atomic energy  EATOM  =     13847.69041634
  Solvation  Ediel_sol  =         0.00000000
  ---------------------------------------------------
  free energy    TOTEN  =      -126.79507364 eV

  energy without entropy =     -126.79507364  energy(sigma->0) =     -126.79507364


--------------------------------------------------------------------------------------------------------




----------------------------------------- Iteration    1(   6)  ---------------------------------------


    POTLOK:  cpu time    0.2600: real time    0.2621
    SETDIJ:  cpu time    0.0620: real time    0.0631
     EDDAV:  cpu time  124.7750: real time  127.5850
 BZINTS: Fermi energy:  5.481189;156.000000 electrons
         Band energy:***********;  BLOECHL correction: -0.013122
       DOS:  cpu time    0.2260: real time    0.2271
    CHARGE:  cpu time    2.7076: real time    2.7306
    MIXING:  cpu time    0.0100: real time    0.0100
    --------------------------------------------
      LOOP:  cpu time  128.0455: real time  130.9052

 eigenvalue-minimisations  : 14420
 total energy-change (2. order) : 0.6596760E+01  (-0.8302818E+01)
 number of electron     156.0000005 magnetization 
 augmentation part      -13.3916341 magnetization 

 Broyden mixing:
  rms(total) = 0.15202E+01    rms(broyden)= 0.15200E+01
  rms(prec ) = 0.16044E+01
  weight for this iteration     100.00

 eigenvalues of (default mixing * dielectric matrix)
  average eigenvalue GAMMA=   0.6207
  0.6207

 Free energy of the ion-electron system (eV)
  ---------------------------------------------------
  alpha Z        PSCENC =       248.44899081
  Ewald energy   TEWEN  =     15430.52038397
  -Hartree energ DENC   =    -28479.77990188
  -exchange      EXHF   =         0.00000000
  -V(xc)+E(xc)   XCENC  =        54.80652598
  PAW double counting   =     10857.54247404   -10375.82035858
  entropy T*S    EENTRO =         0.00000000
  eigenvalues    EBANDS =     -1703.60684435
  atomic energy  EATOM  =     13847.69041634
  Solvation  Ediel_sol  =         0.00000000
  ---------------------------------------------------
  free energy    TOTEN  =      -120.19831368 eV

  energy without entropy =     -120.19831368  energy(sigma->0) =     -120.19831368


--------------------------------------------------------------------------------------------------------




----------------------------------------- Iteration    1(   7)  ---------------------------------------


    POTLOK:  cpu time    0.2610: real time    0.2626
    SETDIJ:  cpu time    0.0620: real time    0.0618
     EDDAV:  cpu time  117.9931: real time  120.4630
 BZINTS: Fermi energy:  6.079290;156.000000 electrons
         Band energy:***********;  BLOECHL correction:  0.000000
       DOS:  cpu time    0.0490: real time    0.0548
    CHARGE:  cpu time    2.6736: real time    2.8359
    MIXING:  cpu time    0.0100: real time    0.0100
    --------------------------------------------
      LOOP:  cpu time  121.0536: real time  123.7401

 eigenvalue-minimisations  : 13496
 total energy-change (2. order) : 0.6896024E+01  (-0.3212642E+01)
 number of electron     156.0000007 magnetization 
 augmentation part      -15.4244572 magnetization 

 Broyden mixing:
  rms(total) = 0.66066E+00    rms(broyden)= 0.66048E+00
  rms(prec ) = 0.66972E+00
  weight for this iteration     100.00

 eigenvalues of (default mixing * dielectric matrix)
  average eigenvalue GAMMA=   1.4903
  2.4705  0.5101

 Free energy of the ion-electron system (eV)
  ---------------------------------------------------
  alpha Z        PSCENC =       248.44899081
  Ewald energy   TEWEN  =     15430.52038397
  -Hartree energ DENC   =    -28645.70387432
  -exchange      EXHF   =         0.00000000
  -V(xc)+E(xc)   XCENC  =        58.72270778
  PAW double counting   =     11241.51022702   -10755.77048399
  entropy T*S    EENTRO =         0.00000000
  eigenvalues    EBANDS =     -1538.72065708
  atomic energy  EATOM  =     13847.69041634
  Solvation  Ediel_sol  =         0.00000000
  ---------------------------------------------------
  free energy    TOTEN  =      -113.30228947 eV

  energy without entropy =     -113.30228947  energy(sigma->0) =     -113.30228947


--------------------------------------------------------------------------------------------------------




----------------------------------------- Iteration    1(   8)  ---------------------------------------


    POTLOK:  cpu time    0.2970: real time    0.2994
    SETDIJ:  cpu time    0.0610: real time    0.0614
     EDDAV:  cpu time  112.8828: real time  115.2215
 BZINTS: Fermi energy:  5.954945;156.000000 electrons
         Band energy:***********;  BLOECHL correction:  0.000000
       DOS:  cpu time    0.0620: real time    0.0628
    CHARGE:  cpu time    2.6966: real time    2.7253
    MIXING:  cpu time    0.0090: real time    0.0091
    --------------------------------------------
      LOOP:  cpu time  116.0154: real time  118.4094

 eigenvalue-minimisations  : 12992
 total energy-change (2. order) : 0.4758465E+00  (-0.3653020E+00)
 number of electron     156.0000007 magnetization 
 augmentation part      -15.1056388 magnetization 

 Broyden mixing:
  rms(total) = 0.10510E+00    rms(broyden)= 0.10496E+00
  rms(prec ) = 0.10864E+00
  weight for this iteration     100.00

 eigenvalues of (default mixing * dielectric matrix)
  average eigenvalue GAMMA=   1.3167
  0.4989  1.0010  2.4500

 Free energy of the ion-electron system (eV)
  ---------------------------------------------------
  alpha Z        PSCENC =       248.44899081
  Ewald energy   TEWEN  =     15430.52038397
  -Hartree energ DENC   =    -28609.29903463
  -exchange      EXHF   =         0.00000000
  -V(xc)+E(xc)   XCENC  =        57.23357232
  PAW double counting   =     11162.07711052   -10676.09489456
  entropy T*S    EENTRO =         0.00000000
  eigenvalues    EBANDS =     -1573.40298771
  atomic energy  EATOM  =     13847.69041634
  Solvation  Ediel_sol  =         0.00000000
  ---------------------------------------------------
  free energy    TOTEN  =      -112.82644294 eV

  energy without entropy =     -112.82644294  energy(sigma->0) =     -112.82644294


--------------------------------------------------------------------------------------------------------




----------------------------------------- Iteration    1(   9)  ---------------------------------------


    POTLOK:  cpu time    0.2610: real time    0.2618
    SETDIJ:  cpu time    0.0630: real time    0.0629
     EDDAV:  cpu time  104.2831: real time  105.9000
 BZINTS: Fermi energy:  5.928081;156.000000 electrons
         Band energy:***********;  BLOECHL correction:  0.000000
       DOS:  cpu time    0.0630: real time    0.0645
    CHARGE:  cpu time    2.7476: real time    2.8628
    MIXING:  cpu time    0.0090: real time    0.0097
    --------------------------------------------
      LOOP:  cpu time  107.4297: real time  109.1906

 eigenvalue-minimisations  : 11900
 total energy-change (2. order) :-0.3982783E-02  (-0.3208447E-01)
 number of electron     156.0000007 magnetization 
 augmentation part      -15.1421757 magnetization 

 Broyden mixing:
  rms(total) = 0.68287E-01    rms(broyden)= 0.68263E-01
  rms(prec ) = 0.70302E-01
  weight for this iteration     100.00

 eigenvalues of (default mixing * dielectric matrix)
  average eigenvalue GAMMA=   1.2280
  2.4395  1.2646  0.5037  0.7041

 Free energy of the ion-electron system (eV)
  ---------------------------------------------------
  alpha Z        PSCENC =       248.44899081
  Ewald energy   TEWEN  =     15430.52038397
  -Hartree energ DENC   =    -28611.51716140
  -exchange      EXHF   =         0.00000000
  -V(xc)+E(xc)   XCENC  =        57.45749989
  PAW double counting   =     11182.99927962   -10696.73693273
  entropy T*S    EENTRO =         0.00000000
  eigenvalues    EBANDS =     -1571.69290222
  atomic energy  EATOM  =     13847.69041634
  Solvation  Ediel_sol  =         0.00000000
  ---------------------------------------------------
  free energy    TOTEN  =      -112.83042572 eV

  energy without entropy =     -112.83042572  energy(sigma->0) =     -112.83042572


--------------------------------------------------------------------------------------------------------




----------------------------------------- Iteration    1(  10)  ---------------------------------------


    POTLOK:  cpu time    0.2610: real time    0.2620
    SETDIJ:  cpu time    0.0610: real time    0.0623
     EDDAV:  cpu time  107.1027: real time  110.5451
 BZINTS: Fermi energy:  5.946689;156.000000 electrons
         Band energy:***********;  BLOECHL correction:  0.000000
       DOS:  cpu time    0.0530: real time    0.0530
    CHARGE:  cpu time    2.7596: real time    2.7778
    MIXING:  cpu time    0.0100: real time    0.0098
    --------------------------------------------
      LOOP:  cpu time  110.2522: real time  113.7384

 eigenvalue-minimisations  : 12376
 total energy-change (2. order) : 0.8730196E-02  (-0.5679306E-02)
 number of electron     156.0000007 magnetization 
 augmentation part      -15.1789547 magnetization 

 Broyden mixing:
  rms(total) = 0.33303E-01    rms(broyden)= 0.33297E-01
  rms(prec ) = 0.33818E-01
  weight for this iteration     100.00

 eigenvalues of (default mixing * dielectric matrix)
  average eigenvalue GAMMA=   1.2536
  2.4963  1.7845  0.5034  0.8208  0.6630

 Free energy of the ion-electron system (eV)
  ---------------------------------------------------
  alpha Z        PSCENC =       248.44899081
  Ewald energy   TEWEN  =     15430.52038397
  -Hartree energ DENC   =    -28618.49596600
  -exchange      EXHF   =         0.00000000
  -V(xc)+E(xc)   XCENC  =        57.63851371
  PAW double counting   =     11201.84320225   -10715.46996972
  entropy T*S    EENTRO =         0.00000000
  eigenvalues    EBANDS =     -1564.99726689
  atomic energy  EATOM  =     13847.69041634
  Solvation  Ediel_sol  =         0.00000000
  ---------------------------------------------------
  free energy    TOTEN  =      -112.82169553 eV

  energy without entropy =     -112.82169553  energy(sigma->0) =     -112.82169553


--------------------------------------------------------------------------------------------------------




----------------------------------------- Iteration    1(  11)  ---------------------------------------


    POTLOK:  cpu time    0.2610: real time    0.2625
    SETDIJ:  cpu time    0.0640: real time    0.0650
     EDDAV:  cpu time  114.5246: real time  117.0338
 BZINTS: Fermi energy:  5.952274;156.000000 electrons
         Band energy:***********;  BLOECHL correction:  0.000000
       DOS:  cpu time    0.0610: real time    0.0607
    CHARGE:  cpu time    2.8306: real time    2.8563
    MIXING:  cpu time    0.0100: real time    0.0102
    --------------------------------------------
      LOOP:  cpu time  117.7551: real time  120.3164

 eigenvalue-minimisations  : 13244
 total energy-change (2. order) : 0.8359486E-03  (-0.1909370E-02)
 number of electron     156.0000007 magnetization 
 augmentation part      -15.1969921 magnetization 

 Broyden mixing:
  rms(total) = 0.16405E-01    rms(broyden)= 0.16403E-01
  rms(prec ) = 0.16886E-01
  weight for this iteration     100.00

 eigenvalues of (default mixing * dielectric matrix)
  average eigenvalue GAMMA=   1.2468
  2.5694  1.7399  1.1383  0.9738  0.5018  0.5578

 Free energy of the ion-electron system (eV)
  ---------------------------------------------------
  alpha Z        PSCENC =       248.44899081
  Ewald energy   TEWEN  =     15430.52038397
  -Hartree energ DENC   =    -28621.99617310
  -exchange      EXHF   =         0.00000000
  -V(xc)+E(xc)   XCENC  =        57.76247967
  PAW double counting   =     11213.83937143   -10727.43281944
  entropy T*S    EENTRO =         0.00000000
  eigenvalues    EBANDS =     -1561.65350925
  atomic energy  EATOM  =     13847.69041634
  Solvation  Ediel_sol  =         0.00000000
  ---------------------------------------------------
  free energy    TOTEN  =      -112.82085958 eV

  energy without entropy =     -112.82085958  energy(sigma->0) =     -112.82085958


--------------------------------------------------------------------------------------------------------




----------------------------------------- Iteration    1(  12)  ---------------------------------------


    POTLOK:  cpu time    0.2610: real time    0.2638
    SETDIJ:  cpu time    0.0640: real time    0.0633
     EDDAV:  cpu time  117.5231: real time  120.3786
 BZINTS: Fermi energy:  5.945450;156.000000 electrons
         Band energy:***********;  BLOECHL correction:  0.000000
       DOS:  cpu time    0.0560: real time    0.0567
    CHARGE:  cpu time    2.8366: real time    2.8569
    MIXING:  cpu time    0.0100: real time    0.0105
    --------------------------------------------
      LOOP:  cpu time  120.7576: real time  123.6601

 eigenvalue-minimisations  : 13468
 total energy-change (2. order) : 0.4000243E-03  (-0.2248155E-03)
 number of electron     156.0000007 magnetization 
 augmentation part      -15.1899823 magnetization 

 Broyden mixing:
  rms(total) = 0.71544E-02    rms(broyden)= 0.71496E-02
  rms(prec ) = 0.77273E-02
  weight for this iteration     100.00

 eigenvalues of (default mixing * dielectric matrix)
  average eigenvalue GAMMA=   1.2572
  2.5337  1.7791  1.7791  0.9650  0.7025  0.5021  0.5392

 Free energy of the ion-electron system (eV)
  ---------------------------------------------------
  alpha Z        PSCENC =       248.44899081
  Ewald energy   TEWEN  =     15430.52038397
  -Hartree energ DENC   =    -28621.57199586
  -exchange      EXHF   =         0.00000000
  -V(xc)+E(xc)   XCENC  =        57.74948830
  PAW double counting   =     11210.55394670   -10724.21308978
  entropy T*S    EENTRO =         0.00000000
  eigenvalues    EBANDS =     -1561.99860003
  atomic energy  EATOM  =     13847.69041634
  Solvation  Ediel_sol  =         0.00000000
  ---------------------------------------------------
  free energy    TOTEN  =      -112.82045955 eV

  energy without entropy =     -112.82045955  energy(sigma->0) =     -112.82045955


[...]

  energy without entropy =       -4.91405140


----------------------------------------- Iteration    3(  22)  ---------------------------------------


   POT+DIJ:  cpu time    0.6429: real time    0.6468
    HAMIL1:  cpu time   16.0596: real time   16.1947
    LRDIAG:  cpu time    2.5806: real time    2.5950
    LRDIIS:  cpu time   65.8340: real time   66.3951
    LRDIAG:  cpu time    2.5496: real time    2.5613
    MIXING:  cpu time    0.0160: real time    0.0161
    --------------------------------------------
      LOOP:  cpu time   93.1178: real time   93.8988

 Broyden mixing:
  rms(total) = 0.15892E-05    rms(broyden)= 0.15877E-05
  rms(prec ) = 0.16595E-05
  weight for this iteration     100.00

 eigenvalues of (default mixing * dielectric matrix)
  average eigenvalue GAMMA=   1.7136
  6.8077  4.2048  3.1175  3.1175  2.3585  1.9901  1.9901  1.2341  1.2341  1.0606
  1.0606  0.9142  0.8627  0.8627  0.7744  0.6473  0.5323  0.5058  0.5007  0.4958

 Free energy of the ion-electron system (eV)
  ---------------------------------------------------
  -Hartree energ DENC   =        -2.96384855
  -V(xc)+E(xc)   XCENC  =         0.08259835
  PAW double counting   =         0.20842866       -0.20538954
  entropy T*S    EENTRO =         0.00000000
  eigenvalues    EBANDS =        -2.03554969
  ---------------------------------------------------
  free energy    TOTEN  =        -4.91376077 eV

  energy without entropy =       -4.91376077


----------------------------------------- Iteration    3(  23)  ---------------------------------------


   POT+DIJ:  cpu time    0.6469: real time    0.6510
    HAMIL1:  cpu time   15.9886: real time   16.1407
    LRDIAG:  cpu time    2.5746: real time    2.5872
    LRDIIS:  cpu time   64.5892: real time   65.0602
    LRDIAG:  cpu time    2.5326: real time    2.5456
    MIXING:  cpu time    0.0170: real time    0.0165
    --------------------------------------------
      LOOP:  cpu time   91.8200: real time   92.5247

 Broyden mixing:
  rms(total) = 0.78993E-06    rms(broyden)= 0.78925E-06
  rms(prec ) = 0.80967E-06
  weight for this iteration     100.00

 eigenvalues of (default mixing * dielectric matrix)
  average eigenvalue GAMMA=   1.6730
  6.8085  4.1923  3.2477  2.9375  2.4772  1.9590  1.9590  1.2611  1.2611  1.0557
  1.0557  1.0925  0.8831  0.8831  0.7751  0.6473  0.6176  0.5323  0.5058  0.5006
  0.4813

 Free energy of the ion-electron system (eV)
  ---------------------------------------------------
  -Hartree energ DENC   =        -2.96385002
  -V(xc)+E(xc)   XCENC  =         0.08259836
  PAW double counting   =         0.20842529       -0.20538615
  entropy T*S    EENTRO =         0.00000000
  eigenvalues    EBANDS =        -2.03524935
  ---------------------------------------------------
  free energy    TOTEN  =        -4.91346188 eV

  energy without entropy =       -4.91346188


------------------------ aborting loop because EDIFF is reached ----------------------------------------


 change of polarisation eV/A/(eV/A) component  3 :    -0.027     0.010     9.523
 dielectric tensor                  component  3 :    -0.009     0.003     4.162


--------------------------------------------------------------------------------------------------------


    FORLOC:  cpu time    0.0400: real time    0.0397
    FORNL :  cpu time   31.7682: real time   31.8850
    STRESS:  cpu time   52.0501: real time   52.3855
    FORCOR:  cpu time    0.2800: real time    0.2820
    OFIELD:  cpu time    0.0010: real time    0.0005

  Hirshfeld charges:
            ion         q(e)     
   ------------------------------
      1     Mo          0.242
      2     Mo          0.241
      3     Mo          0.241
      4     Mo          0.241
      5     Mo          0.241
      6     Mo          0.242
      7     Te         -0.121
      8     Te         -0.121
      9     Te         -0.120
     10     Te         -0.120
     11     Te         -0.120
     12     Te         -0.120
     13     Te         -0.120
     14     Te         -0.120
     15     Te         -0.120
     16     Te         -0.120
     17     Te         -0.121
     18     Te         -0.121

  Tkatchenko/Scheffler method for vdW energy calculation
  ---------------------------------------------------------------------------------------------

  Parameters of vdW forcefield:
            C6ts              R0ts           ALPHAts        RELVOL
            (au)              (au)            (au)                
   ---------------------------------------------------------------
   Mo       1114.303          4.156         92.024          1.041
   Mo       1118.981          4.159         92.217          1.043
   Mo       1118.997          4.159         92.217          1.043
   Mo       1118.997          4.159         92.217          1.043
   Mo       1118.981          4.159         92.217          1.043
   Mo       1114.303          4.156         92.024          1.041
   Te        411.617          4.241         38.385          1.020
   Te        403.997          4.228         38.028          1.010
   Te        411.642          4.241         38.386          1.020
   Te        411.617          4.241         38.385          1.020
   Te        411.647          4.241         38.386          1.020
   Te        411.641          4.241         38.386          1.020
   Te        411.642          4.241         38.386          1.020
   Te        411.646          4.241         38.386          1.020
   Te        411.617          4.241         38.385          1.020
   Te        411.641          4.241         38.386          1.020
   Te        403.998          4.228         38.028          1.010
   Te        411.617          4.241         38.385          1.020
  Edisp (eV):   -6.16916
    FORVDW:  cpu time    5.6351: real time    5.6640
    FORLOC:  cpu time    0.0460: real time    0.0456
    FORNL :  cpu time   31.7472: real time   31.8669
    STRESS:  cpu time   51.8821: real time   52.2749
    FORCOR:  cpu time    0.2810: real time    0.2835
    OFIELD:  cpu time    0.0010: real time    0.0004

  Hirshfeld charges:
            ion         q(e)     
   ------------------------------
      1     Mo          0.242
      2     Mo          0.241
      3     Mo          0.241
      4     Mo          0.241
      5     Mo          0.241
      6     Mo          0.242
      7     Te         -0.121
      8     Te         -0.121
      9     Te         -0.120
     10     Te         -0.120
     11     Te         -0.120
     12     Te         -0.120
     13     Te         -0.120
     14     Te         -0.120
     15     Te         -0.120
     16     Te         -0.120
     17     Te         -0.121
     18     Te         -0.121

  Tkatchenko/Scheffler method for vdW energy calculation
  ---------------------------------------------------------------------------------------------

  Parameters of vdW forcefield:
            C6ts              R0ts           ALPHAts        RELVOL
            (au)              (au)            (au)                
   ---------------------------------------------------------------
   Mo       1114.303          4.156         92.024          1.041
   Mo       1118.981          4.159         92.217          1.043
   Mo       1118.997          4.159         92.217          1.043
   Mo       1118.997          4.159         92.217          1.043
   Mo       1118.981          4.159         92.217          1.043
   Mo       1114.303          4.156         92.024          1.041
   Te        411.617          4.241         38.385          1.020
   Te        403.998          4.228         38.028          1.010
   Te        411.641          4.241         38.386          1.020
   Te        411.617          4.241         38.385          1.020
   Te        411.646          4.241         38.386          1.020
   Te        411.642          4.241         38.386          1.020
   Te        411.641          4.241         38.386          1.020
   Te        411.647          4.241         38.386          1.020
   Te        411.617          4.241         38.385          1.020
   Te        411.642          4.241         38.386          1.020
   Te        403.997          4.228         38.028          1.010
   Te        411.617          4.241         38.385          1.020
  Edisp (eV):   -6.16916
    FORVDW:  cpu time    5.6351: real time    5.6616
    FORNLD:  cpu time   56.0455: real time   56.4072

 PIEZOELECTRIC TENSOR FIELD DIRECTION 3  (e Angst)
 -----------------------------------------------------------------------------
    -0.91187  0.00000 -0.00000           ( -0.00001  0.00000 -0.00000)
     0.00000 -0.91187 -0.00000           ( -0.00000 -0.00001 -0.00000)
    -0.00000 -0.00000 -1.14264           ( -0.00000 -0.00000  0.00001)

 PIEZOELECTRIC TENSOR FIELD DIRECTION 3  (C/m^2)
 -----------------------------------------------------------------------------
    -0.02681  0.00000 -0.00000
     0.00000 -0.02681 -0.00000
    -0.00000 -0.00000 -0.03360


      POSITION         DIRECTION 3           BORN EFFECTIVE CHARGE    (rigid.aug.   ionic)
 -----------------------------------------------------------------------------------------
     -0.00000      1.02404      7.55000     0.00000 -0.00000-72.06864 (  0.16211 14.00000)
      1.77370      2.04809     14.53000     0.00000 -0.00000-32.55884 (  0.16197 14.00000)
     -0.00000      1.02404     21.51000    -0.00000  0.00000 -3.50925 (  0.16197 14.00000)
      1.77370      2.04809     28.49000    -0.00000  0.00000 -3.57309 (  0.16197 14.00000)
     -0.00000      1.02404     35.47000     0.00000 -0.00000-32.37734 (  0.16197 14.00000)
      1.77370      2.04809     42.45000     0.00000 -0.00000-72.24927 (  0.16211 14.00000)
      1.77370      2.04809      9.35510     0.00000  0.00000-10.71722 (  1.18462  6.00000)
      1.77370      2.04809      5.74490     0.00000 -0.00000-20.01157 (  1.18399  6.00000)
     -0.00000      1.02404     16.33510     0.00000 -0.00000 -1.49700 (  1.18459  6.00000)
     -0.00000      1.02404     12.72490    -0.00000 -0.00000  3.14932 (  1.18455  6.00000)
      1.77370      2.04809     23.31510    -0.00000 -0.00000  1.00587 (  1.18459  6.00000)
      1.77370      2.04809     19.70490     0.00000  0.00000  1.94485 (  1.18459  6.00000)
     -0.00000      1.02404     30.29510    -0.00000 -0.00000  1.91194 (  1.18459  6.00000)
     -0.00000      1.02404     26.68490     0.00000 -0.00000  0.97706 (  1.18459  6.00000)
      1.77370      2.04809     37.27510    -0.00000 -0.00000  3.03623 (  1.18455  6.00000)
      1.77370      2.04809     33.66490    -0.00000  0.00000 -1.42266 (  1.18459  6.00000)
     -0.00000      1.02404     44.25510     0.00000 -0.00000-19.91652 (  1.18399  6.00000)
     -0.00000      1.02404     40.64490    -0.00000  0.00000-10.62898 (  1.18462  6.00000)
 -----------------------------------------------------------------------------------------
    total drift (improves with k-points):  -0.00000 -0.00000*********




--------------------------------------------------------------------------------------------------------


  LATTYP: Found a hexagonal cell.
 ALAT       =     3.5473923118
 C/A-ratio  =    14.0948605637
  
  Lattice vectors:
  
 A1 = (   3.5473923118,   0.0000000000,   0.0000000000)
 A2 = (  -1.7736961559,   3.0721318592,   0.0000000000)
 A3 = (   0.0000000000,   0.0000000000,  50.0000000000)


Analysis of symmetry for initial positions (statically):
=====================================================================
 Subroutine PRICEL returns:
 Original cell was already a primitive cell.
 

 Routine SETGRP: Setting up the symmetry group for a 
 hexagonal supercell.


 Subroutine GETGRP returns: Found 12 space group operations
 (whereof  4 operations were pure point group operations)
 out of a pool of 24 trial point group operations.


The static configuration has the point symmetry C_2h.
 The point group associated with its full space group is D_3d.


Analysis of symmetry for dynamics (positions and initial velocities):
=====================================================================
 Subroutine PRICEL returns:
 Original cell was already a primitive cell.
 

 Routine SETGRP: Setting up the symmetry group for a 
 hexagonal supercell.


 Subroutine GETGRP returns: Found 12 space group operations
 (whereof  4 operations were pure point group operations)
 out of a pool of 24 trial point group operations.


The dynamic configuration has the point symmetry C_2h.
 The point group associated with its full space group is D_3d.


 Subroutine INISYM returns: Found 12 space group operations
 (whereof  4 operations are pure point group operations),
 and found     1 'primitive' translations



 MACROSCOPIC STATIC DIELECTRIC TENSOR (including local field effects in DFT)
 ------------------------------------------------------
          16.998177     0.000000     0.000000
          -0.000000    16.998177     0.000000
          -0.000000    -0.000000     4.162311
 ------------------------------------------------------



--------------------------------------------------------------------------------------------------------


  LATTYP: Found a hexagonal cell.
 ALAT       =     3.5473923118
 C/A-ratio  =    14.0948605637
  
  Lattice vectors:
  
 A1 = (   3.5473923118,   0.0000000000,   0.0000000000)
 A2 = (  -1.7736961559,   3.0721318592,   0.0000000000)
 A3 = (   0.0000000000,   0.0000000000,  50.0000000000)


Analysis of symmetry for initial positions (statically):
=====================================================================
 Subroutine PRICEL returns:
 Original cell was already a primitive cell.
 

 Routine SETGRP: Setting up the symmetry group for a 
 hexagonal supercell.


 Subroutine GETGRP returns: Found 12 space group operations
 (whereof  4 operations were pure point group operations)
 out of a pool of 24 trial point group operations.


The static configuration has the point symmetry C_2h.
 The point group associated with its full space group is D_3d.


Analysis of symmetry for dynamics (positions and initial velocities):
=====================================================================
 Subroutine PRICEL returns:
 Original cell was already a primitive cell.
 

 Routine SETGRP: Setting up the symmetry group for a 
 hexagonal supercell.


 Subroutine GETGRP returns: Found 12 space group operations
 (whereof  4 operations were pure point group operations)
 out of a pool of 24 trial point group operations.


The dynamic configuration has the point symmetry C_2h.
 The point group associated with its full space group is D_3d.


 Subroutine INISYM returns: Found 12 space group operations
 (whereof  4 operations are pure point group operations),
 and found     1 'primitive' translations



--------------------------------------------------------------------------------------------------------




 MACROSCOPIC STATIC DIELECTRIC TENSOR (including local field effects in DFT)
 ------------------------------------------------------
          16.998177     0.000000     0.000000
          -0.000000    16.998177     0.000000
          -0.000000    -0.000000     4.162311
 ------------------------------------------------------


 PIEZOELECTRIC TENSOR  for field in x, y, z        (e  Angst)
          XX          YY          ZZ          XY          YZ          ZX
  --------------------------------------------------------------------------------
  x     0.00350     0.00351    -0.00418     0.00000     0.00016     0.00000
  y    -0.01902     0.03847     0.00049     0.00000     0.00071     0.00000
  z    -0.91187    -0.91187    -1.14264     0.00000    -0.00000    -0.00000

 PIEZOELECTRIC TENSOR  for field in x, y, z        (C/m^2)
          XX          YY          ZZ          XY          YZ          ZX
  --------------------------------------------------------------------------------
  x     0.00000     0.00000     0.00000     0.00000     0.00000     0.00000
  y     0.00000     0.00000     0.00000     0.00000     0.00000     0.00000
  z     0.00000     0.00000     0.00000     0.00000     0.00000     0.00000
 
 BORN EFFECTIVE CHARGES (in e, cummulative output)
 -------------------------------------------------
 ion    1
    1    -3.24919    -0.00007     0.00003
    2    -0.00000    -3.24976    -0.00022
    3     0.00000    -0.00000   -72.06864
 ion    2
    1    -3.22705     0.00005     0.00001
    2    -0.00000    -3.22638    -0.00001
    3     0.00000    -0.00000   -32.55884
 ion    3
    1    -3.22628    -0.00005    -0.00000
    2    -0.00000    -3.22694    -0.00002
    3    -0.00000     0.00000    -3.50925
 ion    4
    1    -3.22628     0.00005     0.00000
    2    -0.00000    -3.22561     0.00002
    3    -0.00000     0.00000    -3.57309
 ion    5
    1    -3.22705    -0.00005    -0.00001
    2     0.00000    -3.22775     0.00001
    3     0.00000    -0.00000   -32.37734
 ion    6
    1    -3.24919     0.00007    -0.00003
    2     0.00000    -3.24865     0.00024
    3     0.00000    -0.00000   -72.24927
 ion    7
    1     1.59309    -0.00194     0.00028
    2     0.00000     1.59346     0.00235
    3     0.00000     0.00000   -10.71722
 ion    8
    1     1.60182    -0.00175    -0.00012
    2     0.00000     1.60212    -0.00127
    3     0.00000    -0.00000   -20.01157
 ion    9
    1     1.58692     0.00197     0.00027
    2    -0.00000     1.58652     0.00219
    3     0.00000    -0.00000    -1.49700
 ion   10
    1     1.58878     0.00194    -0.00028
    2     0.00000     1.58840    -0.00220
    3    -0.00000    -0.00000     3.14932
 ion   11
    1     1.58698    -0.00195     0.00028
    2     0.00000     1.58736     0.00223
    3    -0.00000    -0.00000     1.00587
 ion   12
    1     1.58696    -0.00196    -0.00027
    2     0.00000     1.58738    -0.00222
    3     0.00000     0.00000     1.94485
 ion   13
    1     1.58696     0.00196     0.00027
    2     0.00000     1.58655     0.00221
    3    -0.00000    -0.00000     1.91194
 ion   14
    1     1.58698     0.00195    -0.00028
    2     0.00000     1.58661    -0.00222
    3     0.00000    -0.00000     0.97706
 ion   15
    1     1.58878    -0.00194     0.00028
    2    -0.00000     1.58915     0.00222
    3    -0.00000    -0.00000     3.03623
 ion   16
    1     1.58692    -0.00197    -0.00027
    2     0.00000     1.58732    -0.00221
    3    -0.00000     0.00000    -1.42266
 ion   17
    1     1.60182     0.00175     0.00012
    2    -0.00000     1.60152     0.00126
    3     0.00000    -0.00000   -19.91652
 ion   18
    1     1.59309     0.00194    -0.00028
    2    -0.00000     1.59272    -0.00234
    3    -0.00000     0.00000   -10.62898


--------------------------------------------------------------------------------------------------------


 writing wavefunctions
     LOOP+:  cpu time21287.0499: real time21520.5133
    4ORBIT:  cpu time    0.0000: real time    0.0001
 BZINTS: Fermi energy:  5.964777;156.000000 electrons
         Band energy:***********;  BLOECHL correction:  0.000000

 total amount of memory used by VASP on root node   263292. kBytes
========================================================================

   base      :      30000. kBytes
   nonl-proj :     198051. kBytes
   fftplans  :       2737. kBytes
   grid      :      10830. kBytes
   one-center:       1452. kBytes
   wavefun   :      20222. kBytes
 
  
  
 General timing and accounting informations for this job:
 ========================================================
  
                  Total CPU time used (sec):    21319.311
                            User time (sec):    20741.720
                          System time (sec):      577.591
                         Elapsed time (sec):    21554.732
  
                   Maximum memory used (kb):      819576.
                   Average memory used (kb):           0.
  
                          Minor page faults:     13536229
                          Major page faults:            9
                 Voluntary context switches:        18690
