unknown system                          
           1
     3.547392    0.000000    0.000000
    -1.773696    3.072132    0.000000
     0.000000    0.000000   50.000000
   Mo   Te
   6  12
Direct configuration=     1
   0.16666667  0.33333333  0.15100000
   0.83333333  0.66666667  0.29060000
   0.16666667  0.33333333  0.43020000
   0.83333333  0.66666667  0.56980000
   0.16666667  0.33333333  0.70940000
   0.83333333  0.66666667  0.84900000
   0.83333333  0.66666667  0.18710200
   0.83333333  0.66666667  0.11489800
   0.16666667  0.33333333  0.32670200
   0.16666667  0.33333333  0.25449800
   0.83333333  0.66666667  0.46630200
   0.83333333  0.66666667  0.39409800
   0.16666667  0.33333333  0.60590200
   0.16666667  0.33333333  0.53369800
   0.83333333  0.66666667  0.74550200
   0.83333333  0.66666667  0.67329800
   0.16666667  0.33333333  0.88510200
   0.16666667  0.33333333  0.81289800
