  15  15   0   0
  0.3181411E+02  0.3319749E-09  0.3319749E-09  0.5000000E-08  0.5000000E-15
  1.000000000000000E-004
  CAR 
 unknown system                          
      9.46262459    -62.24028598  301      2.35208596      1.00000000
    -62.240  0.0000E+00  0.0000E+00
    -62.001  0.0000E+00  0.0000E+00
    -61.762  0.0000E+00  0.0000E+00
    -61.523  0.0000E+00  0.0000E+00
    -61.284  0.0000E+00  0.0000E+00
    -61.045  0.0000E+00  0.0000E+00
    -60.806  0.0000E+00  0.0000E+00
    -60.567  0.0000E+00  0.0000E+00
    -60.328  0.0000E+00  0.0000E+00
    -60.089  0.0000E+00  0.0000E+00
    -59.850  0.0000E+00  0.0000E+00
    -59.611  0.0000E+00  0.0000E+00
    -59.372  0.0000E+00  0.0000E+00
    -59.133  0.0000E+00  0.0000E+00
    -58.894  0.0000E+00  0.1000E+02
    -58.655  0.0000E+00  0.1000E+02
    -58.416  0.0000E+00  0.1000E+02
    -58.177  0.0000E+00  0.1000E+02
    -57.938  0.0000E+00  0.1000E+02
    -57.699  0.0000E+00  0.1000E+02
    -57.460  0.0000E+00  0.1000E+02
    -57.221  0.0000E+00  0.1000E+02
    -56.982  0.0000E+00  0.1000E+02
    -56.743  0.0000E+00  0.1000E+02
    -56.504  0.0000E+00  0.1000E+02
    -56.265  0.0000E+00  0.1000E+02
    -56.026  0.0000E+00  0.1000E+02
    -55.787  0.0000E+00  0.1000E+02
    -55.548  0.0000E+00  0.1000E+02
    -55.309  0.0000E+00  0.1000E+02
    -55.070  0.0000E+00  0.1000E+02
    -54.831  0.0000E+00  0.1000E+02
    -54.592  0.0000E+00  0.1000E+02
    -54.353  0.0000E+00  0.1000E+02
    -54.114  0.0000E+00  0.1000E+02
    -53.875  0.0000E+00  0.1000E+02
    -53.636  0.0000E+00  0.1000E+02
    -53.397  0.0000E+00  0.1000E+02
    -53.158  0.0000E+00  0.1000E+02
    -52.919  0.0000E+00  0.1000E+02
    -52.680  0.0000E+00  0.1000E+02
    -52.441  0.0000E+00  0.1000E+02
    -52.202  0.0000E+00  0.1000E+02
    -51.963  0.0000E+00  0.1000E+02
    -51.724  0.0000E+00  0.1000E+02
    -51.485  0.0000E+00  0.1000E+02
    -51.246  0.0000E+00  0.1000E+02
    -51.007  0.0000E+00  0.1000E+02
    -50.768  0.0000E+00  0.1000E+02
    -50.529  0.0000E+00  0.1000E+02
    -50.290  0.0000E+00  0.1000E+02
    -50.051  0.0000E+00  0.1000E+02
    -49.812  0.0000E+00  0.1000E+02
    -49.573  0.0000E+00  0.1000E+02
    -49.334  0.0000E+00  0.1000E+02
    -49.095  0.0000E+00  0.1000E+02
    -48.856  0.0000E+00  0.1000E+02
    -48.617  0.0000E+00  0.1000E+02
    -48.378  0.0000E+00  0.1000E+02
    -48.139  0.0000E+00  0.1000E+02
    -47.900  0.0000E+00  0.1000E+02
    -47.661  0.0000E+00  0.1000E+02
    -47.422  0.0000E+00  0.1000E+02
    -47.183  0.0000E+00  0.1000E+02
    -46.944  0.0000E+00  0.1000E+02
    -46.705  0.0000E+00  0.1000E+02
    -46.466  0.0000E+00  0.1000E+02
    -46.227  0.0000E+00  0.1000E+02
    -45.988  0.0000E+00  0.1000E+02
    -45.749  0.0000E+00  0.1000E+02
    -45.510  0.0000E+00  0.1000E+02
    -45.271  0.0000E+00  0.1000E+02
    -45.032  0.0000E+00  0.1000E+02
    -44.793  0.0000E+00  0.1000E+02
    -44.554  0.0000E+00  0.1000E+02
    -44.315  0.0000E+00  0.1000E+02
    -44.076  0.0000E+00  0.1000E+02
    -43.837  0.0000E+00  0.1000E+02
    -43.598  0.0000E+00  0.1000E+02
    -43.359  0.0000E+00  0.1000E+02
    -43.120  0.0000E+00  0.1000E+02
    -42.881  0.0000E+00  0.1000E+02
    -42.641  0.0000E+00  0.1000E+02
    -42.402  0.0000E+00  0.1000E+02
    -42.163  0.0000E+00  0.1000E+02
    -41.924  0.0000E+00  0.1000E+02
    -41.685  0.0000E+00  0.1000E+02
    -41.446  0.0000E+00  0.1000E+02
    -41.207  0.0000E+00  0.1000E+02
    -40.968  0.0000E+00  0.1000E+02
    -40.729  0.0000E+00  0.1000E+02
    -40.490  0.0000E+00  0.1000E+02
    -40.251  0.0000E+00  0.1000E+02
    -40.012  0.0000E+00  0.1000E+02
    -39.773  0.0000E+00  0.1000E+02
    -39.534  0.0000E+00  0.1000E+02
    -39.295  0.0000E+00  0.1000E+02
    -39.056  0.0000E+00  0.1000E+02
    -38.817  0.0000E+00  0.1000E+02
    -38.578  0.0000E+00  0.1000E+02
    -38.339  0.0000E+00  0.1000E+02
    -38.100  0.0000E+00  0.1000E+02
    -37.861  0.0000E+00  0.1000E+02
    -37.622  0.0000E+00  0.1000E+02
    -37.383  0.0000E+00  0.1000E+02
    -37.144  0.0000E+00  0.1000E+02
    -36.905  0.0000E+00  0.1000E+02
    -36.666  0.0000E+00  0.1000E+02
    -36.427  0.0000E+00  0.1000E+02
    -36.188  0.0000E+00  0.1000E+02
    -35.949  0.0000E+00  0.1000E+02
    -35.710  0.0000E+00  0.1000E+02
    -35.471  0.0000E+00  0.1000E+02
    -35.232  0.0000E+00  0.1000E+02
    -34.993  0.0000E+00  0.1000E+02
    -34.754  0.0000E+00  0.1000E+02
    -34.515  0.0000E+00  0.1000E+02
    -34.276  0.0000E+00  0.1000E+02
    -34.037  0.0000E+00  0.1000E+02
    -33.798  0.0000E+00  0.1000E+02
    -33.559  0.0000E+00  0.1000E+02
    -33.320  0.0000E+00  0.1000E+02
    -33.081  0.2655E+03  0.2162E+02
    -32.842  0.0000E+00  0.4000E+02
    -32.603  0.0000E+00  0.4000E+02
    -32.364  0.0000E+00  0.4000E+02
    -32.125  0.0000E+00  0.4000E+02
    -31.886  0.0000E+00  0.4000E+02
    -31.647  0.0000E+00  0.4000E+02
    -31.408  0.0000E+00  0.4000E+02
    -31.169  0.0000E+00  0.4000E+02
    -30.930  0.0000E+00  0.4000E+02
    -30.691  0.0000E+00  0.4000E+02
    -30.452  0.0000E+00  0.4000E+02
    -30.213  0.0000E+00  0.4000E+02
    -29.974  0.0000E+00  0.4000E+02
    -29.735  0.0000E+00  0.4000E+02
    -29.496  0.0000E+00  0.4000E+02
    -29.257  0.0000E+00  0.4000E+02
    -29.018  0.0000E+00  0.4000E+02
    -28.779  0.0000E+00  0.4000E+02
    -28.540  0.0000E+00  0.4000E+02
    -28.301  0.0000E+00  0.4000E+02
    -28.062  0.0000E+00  0.4000E+02
    -27.823  0.0000E+00  0.4000E+02
    -27.584  0.0000E+00  0.4000E+02
    -27.345  0.0000E+00  0.4000E+02
    -27.106  0.0000E+00  0.4000E+02
    -26.867  0.0000E+00  0.4000E+02
    -26.628  0.0000E+00  0.4000E+02
    -26.389  0.0000E+00  0.4000E+02
    -26.150  0.0000E+00  0.4000E+02
    -25.911  0.0000E+00  0.4000E+02
    -25.672  0.0000E+00  0.4000E+02
    -25.433  0.0000E+00  0.4000E+02
    -25.194  0.0000E+00  0.4000E+02
    -24.955  0.0000E+00  0.4000E+02
    -24.716  0.0000E+00  0.4000E+02
    -24.477  0.0000E+00  0.4000E+02
    -24.238  0.0000E+00  0.4000E+02
    -23.999  0.0000E+00  0.4000E+02
    -23.760  0.0000E+00  0.4000E+02
    -23.521  0.0000E+00  0.4000E+02
    -23.282  0.0000E+00  0.4000E+02
    -23.043  0.0000E+00  0.4000E+02
    -22.804  0.0000E+00  0.4000E+02
    -22.565  0.0000E+00  0.4000E+02
    -22.326  0.0000E+00  0.4000E+02
    -22.087  0.0000E+00  0.4000E+02
    -21.848  0.0000E+00  0.4000E+02
    -21.609  0.0000E+00  0.4000E+02
    -21.370  0.0000E+00  0.4000E+02
    -21.131  0.0000E+00  0.4000E+02
    -20.892  0.0000E+00  0.4000E+02
    -20.653  0.0000E+00  0.4000E+02
    -20.414  0.0000E+00  0.4000E+02
    -20.175  0.0000E+00  0.4000E+02
    -19.936  0.0000E+00  0.4000E+02
    -19.697  0.0000E+00  0.4000E+02
    -19.458  0.0000E+00  0.4000E+02
    -19.219  0.0000E+00  0.4000E+02
    -18.980  0.0000E+00  0.4000E+02
    -18.741  0.0000E+00  0.4000E+02
    -18.502  0.0000E+00  0.4000E+02
    -18.263  0.0000E+00  0.4000E+02
    -18.023  0.0000E+00  0.4000E+02
    -17.784  0.0000E+00  0.4000E+02
    -17.545  0.0000E+00  0.4000E+02
    -17.306  0.0000E+00  0.4000E+02
    -17.067  0.0000E+00  0.4000E+02
    -16.828  0.0000E+00  0.4000E+02
    -16.589  0.0000E+00  0.4000E+02
    -16.350  0.0000E+00  0.4000E+02
    -16.111  0.0000E+00  0.4000E+02
    -15.872  0.0000E+00  0.4000E+02
    -15.633  0.0000E+00  0.4000E+02
    -15.394  0.0000E+00  0.4000E+02
    -15.155  0.0000E+00  0.4000E+02
    -14.916  0.0000E+00  0.4000E+02
    -14.677  0.0000E+00  0.4000E+02
    -14.438  0.0000E+00  0.4000E+02
    -14.199  0.0000E+00  0.4000E+02
    -13.960  0.0000E+00  0.4000E+02
    -13.721  0.0000E+00  0.4000E+02
    -13.482  0.0000E+00  0.4000E+02
    -13.243  0.0000E+00  0.4000E+02
    -13.004  0.0000E+00  0.4000E+02
    -12.765  0.0000E+00  0.4000E+02
    -12.526  0.0000E+00  0.4000E+02
    -12.287  0.1596E+01  0.4017E+02
    -12.048  0.2895E+01  0.4076E+02
    -11.809  0.3160E+01  0.4149E+02
    -11.570  0.3479E+01  0.4228E+02
    -11.331  0.5868E+01  0.4340E+02
    -11.092  0.1016E+02  0.4528E+02
    -10.853  0.1284E+02  0.4799E+02
    -10.614  0.2105E+02  0.5192E+02
    -10.375  0.2754E+02  0.5760E+02
    -10.136  0.0000E+00  0.6000E+02
     -9.897  0.0000E+00  0.6000E+02
     -9.658  0.0000E+00  0.6000E+02
     -9.419  0.0000E+00  0.6000E+02
     -9.180  0.0000E+00  0.6000E+02
     -8.941  0.0000E+00  0.6000E+02
     -8.702  0.0000E+00  0.6000E+02
     -8.463  0.0000E+00  0.6000E+02
     -8.224  0.0000E+00  0.6000E+02
     -7.985  0.0000E+00  0.6000E+02
     -7.746  0.0000E+00  0.6000E+02
     -7.507  0.0000E+00  0.6000E+02
     -7.268  0.0000E+00  0.6000E+02
     -7.029  0.0000E+00  0.6000E+02
     -6.790  0.0000E+00  0.6000E+02
     -6.551  0.0000E+00  0.6000E+02
     -6.312  0.0000E+00  0.6000E+02
     -6.073  0.0000E+00  0.6000E+02
     -5.834  0.0000E+00  0.6000E+02
     -5.595  0.0000E+00  0.6000E+02
     -5.356  0.0000E+00  0.6000E+02
     -5.117  0.0000E+00  0.6000E+02
     -4.878  0.0000E+00  0.6000E+02
     -4.639  0.0000E+00  0.6000E+02
     -4.400  0.0000E+00  0.6000E+02
     -4.161  0.0000E+00  0.6000E+02
     -3.922  0.4660E+00  0.6005E+02
     -3.683  0.4007E+01  0.6064E+02
     -3.444  0.7383E+01  0.6211E+02
     -3.205  0.1402E+02  0.6429E+02
     -2.966  0.1975E+02  0.6814E+02
     -2.727  0.1096E+02  0.7241E+02
     -2.488  0.7473E+01  0.7449E+02
     -2.249  0.4423E+01  0.7585E+02
     -2.010  0.1325E+02  0.7812E+02
     -1.771  0.1046E+02  0.8179E+02
     -1.532  0.8336E+01  0.8573E+02
     -1.293  0.1035E+02  0.8787E+02
     -1.054  0.1406E+02  0.9068E+02
     -0.815  0.1410E+02  0.9545E+02
     -0.576  0.9051E+01  0.9799E+02
     -0.337  0.7989E+01  0.9994E+02
     -0.098  0.1710E+02  0.1030E+03
      0.141  0.1850E+02  0.1072E+03
      0.380  0.1411E+02  0.1122E+03
      0.619  0.1539E+02  0.1152E+03
      0.858  0.8947E+01  0.1183E+03
      1.097  0.1307E+02  0.1206E+03
      1.336  0.1483E+02  0.1251E+03
      1.575  0.8915E+01  0.1279E+03
      1.814  0.4496E+01  0.1295E+03
      2.053  0.6916E+00  0.1299E+03
      2.292  0.0000E+00  0.1300E+03
      2.531  0.0000E+00  0.1300E+03
      2.770  0.0000E+00  0.1300E+03
      3.009  0.0000E+00  0.1300E+03
      3.248  0.1915E+01  0.1302E+03
      3.487  0.1159E+02  0.1319E+03
      3.726  0.2377E+02  0.1354E+03
      3.965  0.2436E+02  0.1399E+03
      4.204  0.2074E+02  0.1463E+03
      4.443  0.1807E+02  0.1504E+03
      4.682  0.1558E+02  0.1542E+03
      4.921  0.1266E+02  0.1573E+03
      5.160  0.6471E+01  0.1595E+03
      5.399  0.6596E+01  0.1611E+03
      5.638  0.1120E+02  0.1640E+03
      5.877  0.7847E+01  0.1662E+03
      6.116  0.2748E+01  0.1677E+03
      6.355  0.0000E+00  0.1680E+03
      6.595  0.0000E+00  0.1680E+03
      6.834  0.0000E+00  0.1680E+03
      7.073  0.0000E+00  0.1680E+03
      7.312  0.0000E+00  0.1680E+03
      7.551  0.0000E+00  0.1680E+03
      7.790  0.0000E+00  0.1680E+03
      8.029  0.0000E+00  0.1680E+03
      8.268  0.0000E+00  0.1680E+03
      8.507  0.0000E+00  0.1680E+03
      8.746  0.0000E+00  0.1680E+03
      8.985  0.0000E+00  0.1680E+03
      9.224  0.0000E+00  0.1680E+03
      9.463  0.0000E+00  0.1680E+03
