       N       E                     dE             d eps       ncg     rms          rms(c)
DAV:   1     0.923971266318E+03    0.92397E+03   -0.56622E+04  7308   0.101E+03
DAV:   2    -0.362907410861E+02   -0.96026E+03   -0.94625E+03  9240   0.395E+02
DAV:   3    -0.115292094591E+03   -0.79001E+02   -0.78507E+02  8344   0.107E+02
DAV:   4    -0.118587694460E+03   -0.32956E+01   -0.32840E+01 10388   0.263E+01
DAV:   5    -0.118625306982E+03   -0.37613E-01   -0.37526E-01  8092   0.239E+00    0.217E+01
DAV:   6    -0.108939947853E+03    0.96854E+01   -0.11670E+02 10780   0.405E+01    0.130E+01
DAV:   7    -0.104052011067E+03    0.48879E+01   -0.35565E+01 10892   0.227E+01    0.615E+00
DAV:   8    -0.103746655229E+03    0.30536E+00   -0.34736E+00 11032   0.777E+00    0.145E+00
DAV:   9    -0.103691236728E+03    0.55419E-01   -0.25819E-01  9772   0.249E+00    0.511E-01
DAV:  10    -0.103688711934E+03    0.25248E-02   -0.35096E-02 10024   0.800E-01    0.223E-01
DAV:  11    -0.103688022944E+03    0.68899E-03   -0.73979E-03  9352   0.359E-01    0.112E-01
DAV:  12    -0.103687672641E+03    0.35030E-03   -0.16865E-03  9604   0.196E-01    0.443E-02
DAV:  13    -0.103687571419E+03    0.10122E-03   -0.43176E-04  8344   0.636E-02    0.191E-02
DAV:  14    -0.103687570279E+03    0.11393E-05   -0.75092E-05  9856   0.349E-02    0.154E-02
DAV:  15    -0.103687595266E+03   -0.24987E-04   -0.39924E-05  8372   0.266E-02    0.633E-03
DAV:  16    -0.103687629371E+03   -0.34105E-04   -0.13661E-05  8596   0.118E-02    0.496E-03
DAV:  17    -0.103687716046E+03   -0.86675E-04   -0.12764E-05  8204   0.101E-02    0.276E-03
DAV:  18    -0.103687768104E+03   -0.52059E-04   -0.37237E-06  8232   0.523E-03    0.184E-03
DAV:  19    -0.103687802955E+03   -0.34850E-04   -0.18145E-06  8260   0.387E-03    0.108E-03
DAV:  20    -0.103687818734E+03   -0.15779E-04   -0.73616E-07  8204   0.219E-03    0.664E-04
DAV:  21    -0.103687830854E+03   -0.12120E-04   -0.14161E-07  8372   0.104E-03    0.415E-04
DAV:  22    -0.103687841489E+03   -0.10636E-04   -0.18024E-07  7280   0.779E-04    0.175E-04
DAV:  23    -0.103687844059E+03   -0.25693E-05   -0.37155E-08  6888   0.466E-04    0.849E-05
DAV:  24    -0.103687844867E+03   -0.80841E-06   -0.10484E-08  6356   0.311E-04    0.427E-05
DAV:  25    -0.103687845087E+03   -0.21961E-06   -0.33533E-09  6272   0.192E-04    0.332E-05
DAV:  26    -0.103687845246E+03   -0.15930E-06   -0.31991E-09  6216   0.141E-04    0.182E-05
DAV:  27    -0.103687845319E+03   -0.72556E-07   -0.99547E-10  6244   0.103E-04    0.149E-05
DAV:  28    -0.103687845365E+03   -0.46464E-07   -0.44604E-10  6020   0.736E-05    0.110E-05
DAV:  29    -0.103687845394E+03   -0.28840E-07   -0.25632E-10  6020   0.618E-05    0.619E-06
DAV:  30    -0.103687845410E+03   -0.15652E-07   -0.68649E-11  6132   0.486E-05    0.568E-06
DAV:  31    -0.103710604197E+03   -0.22759E-01   -0.55710E-12  5992   0.267E-05    0.105E-01
DAV:  32    -0.103687854080E+03    0.22750E-01   -0.58461E+00  8232   0.125E-01    0.516E-03
DAV:  33    -0.103687847883E+03    0.61973E-05   -0.35664E-07  8260   0.346E-03    0.992E-04
DAV:  34    -0.103687845985E+03    0.18976E-05   -0.16978E-08  7168   0.793E-04    0.211E-04
DAV:  35    -0.103687845562E+03    0.42282E-06   -0.19743E-09  6132   0.289E-04    0.856E-05
DAV:  36    -0.103687845474E+03    0.87934E-07   -0.44223E-10  6188   0.152E-04    0.624E-05
DAV:  37    -0.103687845444E+03    0.30766E-07   -0.17522E-10  6132   0.923E-05    0.535E-05
DAV:  38    -0.103687845442E+03    0.17535E-08   -0.96456E-11  6188   0.617E-05
   1 F= -.10827969E+03 E0= -.10827969E+03  d E =0.000000E+00
 Linear response reoptimize wavefunctions
DAV:   1    -0.103687845414E+03    0.45918E+01   -0.10189E-08  6216   0.100E-03
DAV:   2    -0.103687845414E+03   -0.43656E-10   -0.19114E-09  5488   0.127E-04
DAV:   3    -0.103687845414E+03   -0.14552E-09   -0.30431E-10  6216   0.887E-05
 Linear response G [H, r] |phi>, progress :
  Direction:   1
       N       E                     dE             d eps       ncg     rms
RMM:   1    -0.520513646700E+03   -0.52051E+03   -0.89073E+00  8735   0.520E+02
RMM:   2    -0.545504009835E+03   -0.24990E+02   -0.66225E+02  9437   0.682E+01
RMM:   3    -0.560964808690E+03   -0.15461E+02   -0.54547E+01 10362   0.179E+01
RMM:   4    -0.562433719838E+03   -0.14689E+01   -0.59304E+00 12349   0.470E+00
RMM:   5    -0.562516602765E+03   -0.82883E-01   -0.62432E-01 12667   0.148E+00
RMM:   6    -0.562537709933E+03   -0.21107E-01   -0.94713E-02 14119   0.521E-01
RMM:   7    -0.562540614338E+03   -0.29044E-02   -0.61211E-03 13960   0.189E-01
RMM:   8    -0.562542454535E+03   -0.18402E-02   -0.50118E-03 14705   0.752E-02
RMM:   9    -0.562542280767E+03    0.17377E-03    0.83356E-04 15426   0.321E-02
RMM:  10    -0.562542538999E+03   -0.25823E-03   -0.10029E-03 15915   0.158E-02
RMM:  11    -0.562542446557E+03    0.92441E-04    0.87196E-05 16121   0.103E-02
RMM:  12    -0.562542514983E+03   -0.68426E-04   -0.56136E-04 16029   0.849E-03
RMM:  13    -0.562542471216E+03    0.43768E-04   -0.11574E-04 15956   0.789E-03
RMM:  14    -0.562542493709E+03   -0.22493E-04   -0.33851E-04 15892   0.768E-03
RMM:  15    -0.562542485200E+03    0.85089E-05   -0.25266E-04 15865   0.760E-03
 Linear response G [H, r] |phi>, progress :
  Direction:   2
       N       E                     dE             d eps       ncg     rms
RMM:   1    -0.499935206396E+03   -0.49994E+03    0.47800E+01  8585   0.525E+02
RMM:   2    -0.575148888984E+03   -0.75214E+02   -0.76471E+02  9194   0.714E+01
RMM:   3    -0.595027775655E+03   -0.19879E+02   -0.67857E+01 10372   0.188E+01
RMM:   4    -0.596820759862E+03   -0.17930E+01   -0.69590E+00 12263   0.478E+00
RMM:   5    -0.596853654262E+03   -0.32894E-01   -0.21182E-01 12691   0.151E+00
RMM:   6    -0.596890908260E+03   -0.37254E-01    0.22517E-01 13947   0.519E-01
RMM:   7    -0.596913554284E+03   -0.22646E-01    0.12096E-01 13932   0.190E-01
RMM:   8    -0.596920673327E+03   -0.71190E-02    0.70503E-02 14767   0.752E-02
RMM:   9    -0.596926224426E+03   -0.55511E-02    0.18797E-02 15309   0.319E-02
RMM:  10    -0.596926996182E+03   -0.77176E-03    0.11825E-02 15872   0.160E-02
RMM:  11    -0.596928092249E+03   -0.10961E-02    0.99910E-04 16052   0.108E-02
RMM:  12    -0.596928131114E+03   -0.38865E-04    0.63647E-04 16004   0.907E-03
RMM:  13    -0.596928212097E+03   -0.80984E-04   -0.16895E-04 15943   0.851E-03
RMM:  14    -0.596928233091E+03   -0.20994E-04   -0.37816E-04 15859   0.831E-03
 Linear response G [H, r] |phi>, progress :
  Direction:   3
       N       E                     dE             d eps       ncg     rms
RMM:   1    -0.495979023319E+03   -0.49598E+03    0.58665E+02  9250   0.521E+02
RMM:   2    -0.563386898170E+03   -0.67408E+02   -0.63318E+02  9237   0.662E+01
RMM:   3    -0.578019377439E+03   -0.14632E+02   -0.56761E+01  9986   0.183E+01
RMM:   4    -0.579143190627E+03   -0.11238E+01   -0.64882E+00 12323   0.493E+00
RMM:   5    -0.579258160980E+03   -0.11497E+00   -0.10414E+00 12522   0.155E+00
RMM:   6    -0.579276702273E+03   -0.18541E-01   -0.19649E-01 13275   0.540E-01
RMM:   7    -0.579280409616E+03   -0.37073E-02   -0.36658E-02 13366   0.200E-01
RMM:   8    -0.579281349891E+03   -0.94028E-03   -0.78146E-03 14093   0.803E-02
RMM:   9    -0.579281576608E+03   -0.22672E-03   -0.15473E-03 15159   0.350E-02
RMM:  10    -0.579281647356E+03   -0.70748E-04   -0.26336E-04 15750   0.176E-02
RMM:  11    -0.579281666289E+03   -0.18933E-04   -0.19119E-05 15713   0.113E-02
RMM:  12    -0.579281678906E+03   -0.12617E-04   -0.25289E-05 15654   0.905E-03
RMM:  13    -0.579281686365E+03   -0.74595E-05   -0.69415E-05 15539   0.821E-03
RMM:  14    -0.579281687909E+03   -0.15435E-05   -0.73355E-05 15433   0.794E-03
RMM:  15    -0.579281689054E+03   -0.11449E-05   -0.82071E-05 15416   0.780E-03
 Linear response to external field (no local field effect), progress :
  Direction:   1
       N       E                     dE             d eps       ncg     rms          rms(c)
RMM:   1    -0.108543328046E+02   -0.10854E+02   -0.71925E+01 14511   0.952E+00
RMM:   2    -0.140667844759E+02   -0.32125E+01    0.28444E-01  8640   0.263E+00
RMM:   3    -0.142241538723E+02   -0.15737E+00   -0.20554E-01 10707   0.705E-01
RMM:   4    -0.142310412383E+02   -0.68874E-02   -0.15786E-02 11306   0.186E-01
RMM:   5    -0.142315744285E+02   -0.53319E-03   -0.27880E-03 12286   0.651E-02
RMM:   6    -0.142316575453E+02   -0.83117E-04   -0.49729E-04 12819   0.228E-02
RMM:   7    -0.142316714498E+02   -0.13905E-04   -0.81949E-05 12863   0.818E-03
RMM:   8    -0.142316733731E+02   -0.19232E-05   -0.14687E-05 12270   0.327E-03
RMM:   9    -0.142316737856E+02   -0.41256E-06   -0.36193E-06 12184   0.138E-03
RMM:  10    -0.142316738751E+02   -0.89451E-07   -0.18395E-06 11680   0.743E-04
RMM:  11    -0.142316738928E+02   -0.17737E-07   -0.15075E-06 11373   0.511E-04
RMM:  12    -0.142316739005E+02   -0.77156E-08   -0.15029E-06 10912   0.437E-04
RMM:  13    -0.142316739015E+02   -0.95002E-09   -0.14952E-06 10306   0.411E-04
RMM:  14    -0.142316739027E+02   -0.12453E-08   -0.15060E-06 10019   0.404E-04
 Linear response to external field (no local field effect), progress :
  Direction:   2
       N       E                     dE             d eps       ncg     rms          rms(c)
RMM:   1    -0.112928805731E+02   -0.11293E+02   -0.73128E+01 14466   0.967E+00
RMM:   2    -0.141677607378E+02   -0.28749E+01    0.42468E-01  8632   0.266E+00
RMM:   3    -0.143364499012E+02   -0.16869E+00   -0.20198E-01 10638   0.728E-01
RMM:   4    -0.143440446548E+02   -0.75948E-02   -0.17270E-02 11491   0.190E-01
RMM:   5    -0.143446519974E+02   -0.60734E-03   -0.27781E-03 12254   0.679E-02
RMM:   6    -0.143447440729E+02   -0.92075E-04   -0.45464E-04 12845   0.236E-02
RMM:   7    -0.143447578900E+02   -0.13817E-04   -0.83933E-05 12644   0.863E-03
RMM:   8    -0.143447598074E+02   -0.19174E-05   -0.15824E-05 12320   0.351E-03
RMM:   9    -0.143447602245E+02   -0.41705E-06   -0.41224E-06 12128   0.150E-03
RMM:  10    -0.143447603036E+02   -0.79111E-07   -0.22763E-06 11665   0.823E-04
RMM:  11    -0.143447603153E+02   -0.11709E-07   -0.18677E-06 11402   0.570E-04
RMM:  12    -0.143447603239E+02   -0.86398E-08   -0.18589E-06 10862   0.487E-04
RMM:  13    -0.143447603230E+02    0.93522E-09   -0.18312E-06 10405   0.457E-04
RMM:  14    -0.143447603272E+02   -0.42087E-08   -0.18689E-06 10095   0.447E-04
 Linear response to external field (no local field effect), progress :
  Direction:   3
       N       E                     dE             d eps       ncg     rms          rms(c)
RMM:   1    -0.733941061360E+01   -0.73394E+01   -0.39740E+01 14015   0.886E+00
RMM:   2    -0.853313343828E+01   -0.11937E+01   -0.25835E-01  8050   0.238E+00
RMM:   3    -0.859127510842E+01   -0.58142E-01   -0.12235E-01 10211   0.627E-01
RMM:   4    -0.859521409705E+01   -0.39390E-02   -0.10575E-02 11470   0.164E-01
RMM:   5    -0.859554780135E+01   -0.33370E-03   -0.15264E-03 11863   0.540E-02
RMM:   6    -0.859558905612E+01   -0.41255E-04   -0.16970E-04 12753   0.173E-02
RMM:   7    -0.859559508612E+01   -0.60300E-05   -0.30676E-05 12456   0.598E-03
RMM:   8    -0.859559586609E+01   -0.77997E-06   -0.53953E-06 12290   0.228E-03
RMM:   9    -0.859559598935E+01   -0.12326E-06   -0.22157E-06 11677   0.972E-04
RMM:  10    -0.859559601792E+01   -0.28574E-07   -0.17254E-06 11415   0.554E-04
RMM:  11    -0.859559601625E+01    0.16748E-08   -0.16083E-06 11131   0.418E-04
RMM:  12    -0.859559601523E+01    0.10177E-08   -0.15850E-06 10534   0.381E-04
RMM:  13    -0.859559601798E+01   -0.27490E-08   -0.16129E-06  9958   0.370E-04
RMM:  14    -0.859559601772E+01    0.26088E-09   -0.16094E-06  9706   0.368E-04
 Linear response to external field, progress :
  Direction:   1
       N       E                     dE             d eps       ncg     rms          rms(c)
RMM:   1    -0.111102301792E+02   -0.11110E+02   -0.72893E+01 63986   0.954E+00
RMM:   2    -0.141142175952E+02   -0.30040E+01    0.40501E-01 38178   0.261E+00    0.782E+00
RMM:   3    -0.137597872228E+02    0.35443E+00   -0.52007E-01 44255   0.301E+00    0.416E+00
RMM:   4    -0.140943746230E+02   -0.33459E+00   -0.50484E-01 45658   0.286E+00    0.671E-01
RMM:   5    -0.141903049390E+02   -0.95930E-01   -0.39104E-02 48162   0.763E-01    0.112E-01
RMM:   6    -0.142056733327E+02   -0.15368E-01   -0.76201E-03 50451   0.160E-01    0.500E-02
RMM:   7    -0.142084040189E+02   -0.27307E-02   -0.75381E-04 50194   0.646E-02    0.186E-02
RMM:   8    -0.142089473918E+02   -0.54337E-03   -0.17815E-03 56500   0.230E-02    0.820E-03
RMM:   9    -0.142090672664E+02   -0.11987E-03   -0.80049E-05 52379   0.104E-02    0.352E-03
RMM:  10    -0.142094718512E+02   -0.40458E-03    0.94934E-05 54263   0.432E-03    0.103E-03
RMM:  11    -0.142095303876E+02   -0.58536E-04   -0.65823E-06 55492   0.165E-03    0.673E-04
RMM:  12    -0.142095635947E+02   -0.33207E-04   -0.10901E-05 54262   0.100E-03    0.288E-04
RMM:  13    -0.142095881222E+02   -0.24528E-04    0.10103E-06 55430   0.654E-04    0.872E-05
RMM:  14    -0.142095878911E+02    0.23117E-06   -0.55873E-07 57449   0.449E-04    0.598E-05
RMM:  15    -0.142095879588E+02   -0.67766E-07    0.67301E-07 53108   0.418E-04    0.439E-05
RMM:  16    -0.142095882844E+02   -0.32555E-06   -0.11338E-06 48217   0.393E-04    0.413E-05
RMM:  17    -0.142095883440E+02   -0.59584E-07   -0.42882E-07 43639   0.388E-04    0.300E-05
RMM:  18    -0.142095884203E+02   -0.76296E-07   -0.46259E-07 43416   0.388E-04    0.386E-05
RMM:  19    -0.142095883745E+02    0.45787E-07   -0.27546E-07 41409   0.387E-04    0.285E-05
RMM:  20    -0.142095883869E+02   -0.12433E-07   -0.45811E-07 40742   0.386E-04    0.365E-05
RMM:  21    -0.142095883888E+02   -0.19197E-08   -0.27325E-07 40625   0.386E-04    0.286E-05
RMM:  22    -0.142095883678E+02    0.21006E-07   -0.39764E-07 40404   0.386E-04    0.348E-05
RMM:  23    -0.142095883461E+02    0.21675E-07   -0.17995E-07 40318   0.386E-04    0.285E-05
RMM:  24    -0.142095883485E+02   -0.23664E-08   -0.40470E-07 40210   0.386E-04    0.335E-05
RMM:  25    -0.142095883525E+02   -0.40351E-08   -0.31508E-07 40203   0.386E-04    0.282E-05
RMM:  26    -0.142095883901E+02   -0.37564E-07   -0.45696E-07 40078   0.386E-04    0.320E-05
RMM:  27    -0.142095883590E+02    0.31106E-07   -0.25427E-07 40042   0.386E-04    0.279E-05
RMM:  28    -0.142095883510E+02    0.79515E-08   -0.51005E-07 40008   0.386E-04    0.307E-05
 Linear response to external field, progress :
  Direction:   2
       N       E                     dE             d eps       ncg     rms          rms(c)
RMM:   1    -0.111242365518E+02   -0.11124E+02   -0.73033E+01 35560   0.954E+00
RMM:   2    -0.141230872573E+02   -0.29989E+01    0.31216E-01 21374   0.261E+00    0.782E+00
RMM:   3    -0.137552812559E+02    0.36781E+00   -0.47878E-01 24476   0.302E+00    0.416E+00
RMM:   4    -0.140662737130E+02   -0.31099E+00   -0.22518E-01 25114   0.286E+00    0.670E-01
RMM:   5    -0.141885349221E+02   -0.12226E+00   -0.22006E-02 26553   0.760E-01    0.125E-01
RMM:   6    -0.142047598607E+02   -0.16225E-01   -0.13321E-02 27725   0.176E-01    0.680E-02
RMM:   7    -0.142066756355E+02   -0.19158E-02    0.45874E-03 27766   0.727E-02    0.312E-02
RMM:   8    -0.142087170051E+02   -0.20414E-02    0.69049E-04 29226   0.350E-02    0.883E-03
RMM:   9    -0.142091580356E+02   -0.44103E-03   -0.19635E-03 28957   0.122E-02    0.453E-03
RMM:  10    -0.142093480694E+02   -0.19003E-03    0.50463E-04 28642   0.639E-03    0.207E-03
RMM:  11    -0.142095688592E+02   -0.22079E-03   -0.52816E-04 29941   0.259E-03    0.812E-04
RMM:  12    -0.142095692477E+02   -0.38856E-06    0.86731E-05 29918   0.144E-03    0.336E-04
RMM:  13    -0.142095988021E+02   -0.29554E-04    0.10228E-05 31040   0.722E-04    0.110E-04
RMM:  14    -0.142096020142E+02   -0.32120E-05   -0.48363E-07 31442   0.492E-04    0.750E-05
RMM:  15    -0.142096013695E+02    0.64470E-06   -0.35775E-06 31060   0.421E-04    0.420E-05
RMM:  16    -0.142096013427E+02    0.26823E-07   -0.16888E-06 26215   0.387E-04    0.366E-05
RMM:  17    -0.142096013871E+02   -0.44427E-07   -0.21947E-06 24109   0.384E-04    0.358E-05
RMM:  18    -0.142096014485E+02   -0.61419E-07   -0.18241E-06 24444   0.385E-04    0.331E-05
RMM:  19    -0.142096014685E+02   -0.19991E-07   -0.23755E-06 23230   0.383E-04    0.349E-05
 Linear response to external field, progress :
  Direction:   3
       N       E                     dE             d eps       ncg     rms          rms(c)
RMM:   1    -0.733941061360E+01   -0.73394E+01   -0.39740E+01 14015   0.886E+00
RMM:   2    -0.853313343828E+01   -0.11937E+01   -0.25835E-01  8050   0.238E+00    0.654E+00
RMM:   3    -0.257557053033E+01    0.59576E+01   -0.96735E+00  9667   0.559E+00    0.232E+00
RMM:   4    -0.448886433001E+01   -0.19133E+01   -0.22542E+01 10637   0.185E+00    0.122E+00
RMM:   5    -0.342199175819E+01    0.10669E+01   -0.14712E+01 10111   0.115E+00    0.705E-01
RMM:   6    -0.252716696928E+01    0.89482E+00   -0.70827E+00 10163   0.792E-01    0.353E-01
RMM:   7    -0.232138418307E+01    0.20578E+00   -0.54834E+00 11562   0.340E-01    0.289E-01
RMM:   8    -0.189402482336E+01    0.42736E+00   -0.14918E+00 10684   0.250E-01    0.124E-01
RMM:   9    -0.179212630862E+01    0.10190E+00   -0.52391E-01 10881   0.159E-01    0.604E-02
RMM:  10    -0.183327742259E+01   -0.41151E-01   -0.95323E-01 11075   0.785E-02    0.305E-02
RMM:  11    -0.173235167111E+01    0.10093E+00    0.57891E-02 11309   0.333E-02    0.238E-02
RMM:  12    -0.175290298512E+01   -0.20551E-01   -0.14237E-01  9861   0.321E-02    0.121E-02
RMM:  13    -0.175281081941E+01    0.92166E-04   -0.13378E-01 10000   0.220E-02    0.729E-03
RMM:  14    -0.176541001531E+01   -0.12599E-01   -0.25147E-01  9888   0.174E-02    0.421E-03
RMM:  15    -0.174636669773E+01    0.19043E-01   -0.58469E-02 10352   0.786E-03    0.222E-03
RMM:  16    -0.174133386669E+01    0.50328E-02   -0.72257E-03 10238   0.513E-03    0.140E-03
RMM:  17    -0.174209434666E+01   -0.76048E-03   -0.14366E-02 10262   0.388E-03    0.106E-03
RMM:  18    -0.174312129827E+01   -0.10270E-02   -0.24475E-02 10096   0.258E-03    0.681E-04
RMM:  19    -0.174259414472E+01    0.52715E-03   -0.19236E-02 10066   0.223E-03    0.402E-04
RMM:  20    -0.174145069231E+01    0.11435E-02   -0.79135E-03 10662   0.128E-03    0.301E-04
RMM:  21    -0.174083337515E+01    0.61732E-03   -0.18960E-03 10460   0.185E-03    0.195E-04
RMM:  22    -0.174126492852E+01   -0.43155E-03   -0.62185E-03 10866   0.923E-04    0.112E-04
RMM:  23    -0.174134959317E+01   -0.84665E-04   -0.70635E-03 11077   0.495E-04    0.833E-05
RMM:  24    -0.174102700039E+01    0.32259E-03   -0.38455E-03 10815   0.276E-04    0.207E-05
RMM:  25    -0.174114579416E+01   -0.11879E-03   -0.50305E-03 10741   0.128E-04    0.132E-05
RMM:  26    -0.174106787381E+01    0.77920E-04   -0.42464E-03 10460   0.118E-04    0.854E-06
