 vasp.5.4.1 24Jun15 (build Apr 13 2016 13:07:19) complex                        
  
 executed on           IFC91_ompi date 2019.09.13  20:32:57
 running on   28 total cores
 distrk:  each k-point on   28 cores,    1 groups
 distr:  one band on NCORES_PER_BAND=   1 cores,   28 groups


--------------------------------------------------------------------------------------------------------


 INCAR:
 POTCAR:    PAW_PBE Mo_sv_GW 05Dec2013            
 POTCAR:    PAW_PBE Se_GW 20Mar2012               

 ----------------------------------------------------------------------------- 
|                                                                             |
|           W    W    AA    RRRRR   N    N  II  N    N   GGGG   !!!           |
|           W    W   A  A   R    R  NN   N  II  NN   N  G    G  !!!           |
|           W    W  A    A  R    R  N N  N  II  N N  N  G       !!!           |
|           W WW W  AAAAAA  RRRRR   N  N N  II  N  N N  G  GGG   !            |
|           WW  WW  A    A  R   R   N   NN  II  N   NN  G    G                |
|           W    W  A    A  R    R  N    N  II  N    N   GGGG   !!!           |
|                                                                             |
|      For optimal performance we recommend to set                            |
|        NCORE= 4 - approx SQRT( number of cores)                             |
|      NCORE specifies how many cores store one orbital (NPAR=cpu/NCORE).     |
|      This setting can  greatly improve the performance of VASP for DFT.     |
|      The default, NPAR=number of cores might be grossly inefficient         |
|      on modern multi-core architectures or massively parallel machines.     |
|      Do your own testing !!!!                                               |
|      Unfortunately you need to use the default for GW and RPA calculations. |
|      (for HF NCORE is supported but not extensively tested yet)             |
|                                                                             |
 ----------------------------------------------------------------------------- 

 POTCAR:    PAW_PBE Mo_sv_GW 05Dec2013            
   VRHFIN =Mo: 4s4p5s4d                                                         
   LEXCH  = PE                                                                  
   EATOM  =  1861.5185 eV,  136.8178 Ry                                         
                                                                                
   TITEL  = PAW_PBE Mo_sv_GW 05Dec2013                                          
   LULTRA =        F    use ultrasoft PP ?                                      
   IUNSCR =        1    unscreen: 0-lin 1-nonlin 2-no                           
   RPACOR =    2.000    partial core radius                                     
   POMASS =   95.940; ZVAL   =   14.000    mass and valenz                      
   RCORE  =    2.100    outmost cutoff radius                                   
   RWIGS  =    2.100; RWIGS  =    1.111    wigner-seitz radius (au A)           
   ENMAX  =  344.914; ENMIN  =  258.686 eV                                      
   RCLOC  =    1.508    cutoff for local pot                                    
   LCOR   =        T    correct aug charges                                     
   LPAW   =        T    paw PP                                                  
   EAUG   =  964.741                                                            
   DEXC   =    0.000                                                            
   RMAX   =    2.149    core radius for proj-oper                               
   RAUG   =    1.300    factor for augmentation sphere                          
   RDEP   =    2.179    radius for radial grids                                 
   RDEPT  =    1.677    core radius for aug-charge                              
                                                                                
   Atomic configuration                                                         
   12 entries                                                                   
     n  l   j            E        occ.                                          
     1  0  0.50    -19816.9363   2.0000                                         
     2  0  0.50     -2796.7578   2.0000                                         
     2  1  1.50     -2499.7842   6.0000                                         
     3  0  0.50      -474.2095   2.0000                                         
     3  1  1.50      -376.9135   6.0000                                         
     3  2  2.50      -218.6898  10.0000                                         
     4  0  0.50       -62.1983   2.0000                                         
     4  0  0.50       -66.6685   0.0000                                         
     4  1  1.50       -36.4414   6.0000                                         
     4  1  1.50       -40.8175   0.0000                                         
     4  2  2.50        -2.3086   6.0000                                         
     4  3  2.50        -1.3606   0.0000                                         
   Description                                                                  
     l       E           TYP  RCUT    TYP  RCUT                                 
     0    -62.1983072     23  1.950                                             
     0     27.2116520     23  1.950                                             
     0    149.6640860     23  1.950                                             
     1    -36.4413666     23  1.800                                             
     1    -40.8174780     23  1.800                                             
     1     54.4233040     23  1.800                                             
     2     -2.3085597     23  2.000                                             
     2     -6.8029130     23  2.000                                             
     2    136.0582600     23  2.000                                             
     3     13.6058260     23  2.100                                             
     3     81.6349560     23  2.100                                             
  local pseudopotential read in
  partial core-charges read in
  partial kinetic energy density read in
  kinetic energy density of atom read in
  atomic valenz-charges read in
  non local Contribution for L=           0  read in
    real space projection operators read in
  non local Contribution for L=           0  read in
    real space projection operators read in
  non local Contribution for L=           0  read in
    real space projection operators read in
  non local Contribution for L=           1  read in
    real space projection operators read in
  non local Contribution for L=           1  read in
    real space projection operators read in
  non local Contribution for L=           1  read in
    real space projection operators read in
  non local Contribution for L=           2  read in
    real space projection operators read in
  non local Contribution for L=           2  read in
    real space projection operators read in
  non local Contribution for L=           2  read in
    real space projection operators read in
  non local Contribution for L=           3  read in
    real space projection operators read in
  non local Contribution for L=           3  read in
    real space projection operators read in
    PAW grid and wavefunctions read in
 
   number of l-projection  operators is LMAX  =          11
   number of lm-projection operators is LMMAX =          41
 
 POTCAR:    PAW_PBE Se_GW 20Mar2012               
   VRHFIN =Se: s2p4                                                             
   LEXCH  = PE                                                                  
   EATOM  =   257.1286 eV,   18.8984 Ry                                         
                                                                                
   TITEL  = PAW_PBE Se_GW 20Mar2012                                             
   LULTRA =        F    use ultrasoft PP ?                                      
   IUNSCR =        1    unscreen: 0-lin 1-nonlin 2-no                           
   RPACOR =    1.900    partial core radius                                     
   POMASS =   78.960; ZVAL   =    6.000    mass and valenz                      
   RCORE  =    2.100    outmost cutoff radius                                   
   RWIGS  =    2.200; RWIGS  =    1.164    wigner-seitz radius (au A)           
   ENMAX  =  211.555; ENMIN  =  158.666 eV                                      
   ICORE  =        3    local potential                                         
   LCOR   =        T    correct aug charges                                     
   LPAW   =        T    paw PP                                                  
   EAUG   =  446.842                                                            
   DEXC   =    0.000                                                            
   RMAX   =    2.147    core radius for proj-oper                               
   RAUG   =    1.300    factor for augmentation sphere                          
   RDEP   =    2.177    radius for radial grids                                 
   RDEPT  =    1.928    core radius for aug-charge                              
                                                                                
   Atomic configuration                                                         
   10 entries                                                                   
     n  l   j            E        occ.                                          
     1  0  0.50    -12503.4788   2.0000                                         
     2  0  0.50     -1606.9547   2.0000                                         
     2  1  1.50     -1413.3140   6.0000                                         
     3  0  0.50      -213.4885   2.0000                                         
     3  1  1.50      -152.9538   6.0000                                         
     3  2  2.50       -53.1221  10.0000                                         
     4  0  0.50       -17.2865   2.0000                                         
     4  1  0.50        -6.5110   4.0000                                         
     4  2  2.50        -6.8029   0.0000                                         
     4  3  2.50        -6.8029   0.0000                                         
   Description                                                                  
     l       E           TYP  RCUT    TYP  RCUT                                 
     0    -17.2865391     23  2.100                                             
     0     68.0291300     23  2.100                                             
     1     -6.5110285     23  2.100                                             
     1     81.6349560     23  2.100                                             
     2     -6.8029130     23  2.100                                             
     3     -1.3605826      7  2.100                                             
  local pseudopotential read in
  partial core-charges read in
  partial kinetic energy density read in
  kinetic energy density of atom read in
  atomic valenz-charges read in
  non local Contribution for L=           0  read in
    real space projection operators read in
  non local Contribution for L=           0  read in
    real space projection operators read in
  non local Contribution for L=           1  read in
    real space projection operators read in
  non local Contribution for L=           1  read in
    real space projection operators read in
  non local Contribution for L=           2  read in
    real space projection operators read in
    PAW grid and wavefunctions read in
 
   number of l-projection  operators is LMAX  =           5
   number of lm-projection operators is LMMAX =          13
 
  PAW_PBE Mo_sv_GW 05Dec2013            :
 energy of atom  1       EATOM=-1861.5185
 kinetic energy error for atom=    0.1105 (will be added to EATOM!!)
  PAW_PBE Se_GW 20Mar2012               :
 energy of atom  2       EATOM= -257.1286
 kinetic energy error for atom=    0.0034 (will be added to EATOM!!)
 
 
 POSCAR: Mo Se                                   
  positions in cartesian coordinates
  No initial velocities read in
 exchange correlation table for  LEXCH =        8
   RHO(1)=    0.500       N(1)  =     2000
   RHO(2)=  100.500       N(2)  =     4000
 


--------------------------------------------------------------------------------------------------------


 ion  position               nearest neighbor table
   1  0.167  0.333  0.242-   6 2.54   7 2.54   6 2.54   7 2.54   6 2.54   7 2.54
   2  0.833  0.667  0.371-   8 2.54   8 2.54   8 2.54   9 2.54   9 2.54   9 2.54
   3  0.167  0.333  0.500-  10 2.54  11 2.54  10 2.54  11 2.54  10 2.54  11 2.54
   4  0.833  0.667  0.629-  13 2.54  13 2.54  13 2.54  12 2.54  12 2.54  12 2.54
   5  0.167  0.333  0.758-  14 2.54  15 2.54  14 2.54  15 2.54  14 2.54  15 2.54
   6  0.833  0.667  0.275-   1 2.54   1 2.54   1 2.54
   7  0.833  0.667  0.208-   1 2.54   1 2.54   1 2.54
   8  0.167  0.333  0.404-   2 2.54   2 2.54   2 2.54
   9  0.167  0.333  0.337-   2 2.54   2 2.54   2 2.54
  10  0.833  0.667  0.533-   3 2.54   3 2.54   3 2.54
  11  0.833  0.667  0.467-   3 2.54   3 2.54   3 2.54
  12  0.167  0.333  0.663-   4 2.54   4 2.54   4 2.54
  13  0.167  0.333  0.596-   4 2.54   4 2.54   4 2.54
  14  0.833  0.667  0.792-   5 2.54   5 2.54   5 2.54
  15  0.833  0.667  0.725-   5 2.54   5 2.54   5 2.54
 
  LATTYP: Found a hexagonal cell.
 ALAT       =     3.3197487879
 C/A-ratio  =    15.0613806029
  
  Lattice vectors:
  
 A1 = (   3.3197487879,   0.0000000000,   0.0000000000)
 A2 = (  -1.6598743939,   2.8749867845,   0.0000000000)
 A3 = (   0.0000000000,   0.0000000000,  50.0000000000)


Analysis of symmetry for initial positions (statically):
=====================================================================
 Subroutine PRICEL returns:
 Original cell was already a primitive cell.
 

 Routine SETGRP: Setting up the symmetry group for a 
 hexagonal supercell.


 Subroutine GETGRP returns: Found 12 space group operations
 (whereof  4 operations were pure point group operations)
 out of a pool of 24 trial point group operations.


The static configuration has the point symmetry C_2v.
 The point group associated with its full space group is D_3h.


Analysis of symmetry for dynamics (positions and initial velocities):
=====================================================================
 Subroutine PRICEL returns:
 Original cell was already a primitive cell.
 

 Routine SETGRP: Setting up the symmetry group for a 
 hexagonal supercell.


 Subroutine GETGRP returns: Found 12 space group operations
 (whereof  4 operations were pure point group operations)
 out of a pool of 24 trial point group operations.


The dynamic configuration has the point symmetry C_2v.
 The point group associated with its full space group is D_3h.


 Subroutine INISYM returns: Found 12 space group operations
 (whereof  4 operations are pure point group operations),
 and found     1 'primitive' translations

 
 
 KPOINTS: KPOINTS created by Atomic Simulation Env

Automatic generation of k-mesh.
Space group operators:
 irot       det(A)        alpha          n_x          n_y          n_z        tau_x        tau_y        tau_z
    1     1.000000     0.000000     1.000000     0.000000     0.000000     0.000000     0.000000     0.000000
    2    -1.000000   180.000000     0.000000     0.000000     1.000000     0.000000     0.000000     0.000000
    3    -1.000000   180.000000     1.000000     0.000000     0.000000     0.000000     0.000000     0.000000
    4     1.000000   180.000000     0.000000     1.000000     0.000000     0.000000     0.000000     0.000000
    5    -1.000000    60.000000     0.000000     0.000000    -1.000000     0.000000     0.500000     0.000000
    6     1.000000   120.000000     0.000000     0.000000    -1.000000     0.500000     0.500000     0.000000
    7     1.000000   120.000000     0.000000     0.000000     1.000000     0.000000     0.500000     0.000000
    8    -1.000000    60.000000     0.000000     0.000000     1.000000     0.500000     0.500000     0.000000
    9     1.000000   180.000000     0.866025    -0.500000     0.000000     0.500000     0.500000     0.000000
   10    -1.000000   180.000000     0.500000    -0.866025     0.000000     0.000000     0.500000     0.000000
   11    -1.000000   180.000000    -0.500000    -0.866025     0.000000     0.500000     0.500000     0.000000
   12     1.000000   180.000000     0.866025     0.500000     0.000000     0.000000     0.500000     0.000000
 
 Subroutine IBZKPT returns following result:
 ===========================================
 
 Found     37 irreducible k-points:
 
 Following reciprocal coordinates:
            Coordinates               Weight
  0.000000  0.000000  0.000000      1.000000
  0.055556  0.000000  0.000000      6.000000
  0.111111  0.000000  0.000000      6.000000
  0.166667  0.000000  0.000000      6.000000
  0.222222  0.000000  0.000000      6.000000
  0.277778  0.000000  0.000000      6.000000
  0.333333  0.000000  0.000000      6.000000
  0.388889  0.000000  0.000000      6.000000
  0.444444  0.000000  0.000000      6.000000
  0.500000  0.000000  0.000000      3.000000
  0.055556  0.055556  0.000000      6.000000
  0.111111  0.055556  0.000000     12.000000
  0.166667  0.055556  0.000000     12.000000
  0.222222  0.055556  0.000000     12.000000
  0.277778  0.055556  0.000000     12.000000
  0.333333  0.055556  0.000000     12.000000
  0.388889  0.055556  0.000000     12.000000
  0.444444  0.055556  0.000000     12.000000
  0.111111  0.111111  0.000000      6.000000
  0.166667  0.111111  0.000000     12.000000
  0.222222  0.111111  0.000000     12.000000
  0.277778  0.111111  0.000000     12.000000
  0.333333  0.111111  0.000000     12.000000
  0.388889  0.111111  0.000000     12.000000
  0.444444  0.111111  0.000000      6.000000
  0.166667  0.166667  0.000000      6.000000
  0.222222  0.166667  0.000000     12.000000
  0.277778  0.166667  0.000000     12.000000
  0.333333  0.166667  0.000000     12.000000
  0.388889  0.166667  0.000000     12.000000
  0.222222  0.222222  0.000000      6.000000
  0.277778  0.222222  0.000000     12.000000
  0.333333  0.222222  0.000000     12.000000
  0.388889  0.222222  0.000000      6.000000
  0.277778  0.277778  0.000000      6.000000
  0.333333  0.277778  0.000000     12.000000
  0.333333  0.333333  0.000000      2.000000
 
 Following cartesian coordinates:
            Coordinates               Weight
  0.000000  0.000000  0.000000      1.000000
  0.016735  0.009662  0.000000      6.000000
  0.033470  0.019324  0.000000      6.000000
  0.050205  0.028986  0.000000      6.000000
  0.066939  0.038648  0.000000      6.000000
  0.083674  0.048309  0.000000      6.000000
  0.100409  0.057971  0.000000      6.000000
  0.117144  0.067633  0.000000      6.000000
  0.133879  0.077295  0.000000      6.000000
  0.150614  0.086957  0.000000      3.000000
  0.016735  0.028986  0.000000      6.000000
  0.033470  0.038648  0.000000     12.000000
  0.050205  0.048309  0.000000     12.000000
  0.066939  0.057971  0.000000     12.000000
  0.083674  0.067633  0.000000     12.000000
  0.100409  0.077295  0.000000     12.000000
  0.117144  0.086957  0.000000     12.000000
  0.133879  0.096619  0.000000     12.000000
  0.033470  0.057971  0.000000      6.000000
  0.050205  0.067633  0.000000     12.000000
  0.066939  0.077295  0.000000     12.000000
  0.083674  0.086957  0.000000     12.000000
  0.100409  0.096619  0.000000     12.000000
  0.117144  0.106281  0.000000     12.000000
  0.133879  0.115943  0.000000      6.000000
  0.050205  0.086957  0.000000      6.000000
  0.066939  0.096619  0.000000     12.000000
  0.083674  0.106281  0.000000     12.000000
  0.100409  0.115943  0.000000     12.000000
  0.117144  0.125604  0.000000     12.000000
  0.066939  0.115943  0.000000      6.000000
  0.083674  0.125604  0.000000     12.000000
  0.100409  0.135266  0.000000     12.000000
  0.117144  0.144928  0.000000      6.000000
  0.083674  0.144928  0.000000      6.000000
  0.100409  0.154590  0.000000     12.000000
  0.100409  0.173914  0.000000      2.000000
 
 TETIRR: Found    169 inequivalent tetrahedra from     1944
 
 Subroutine IBZKPT_HF returns following result:
 ==============================================
 
 Found    324 k-points in 1st BZ
 the following    324 k-points will be used (e.g. in the exchange kernel)
 Following reciprocal coordinates:   # in IRBZ
  0.000000  0.000000  0.000000    0.00308642   1 t-inv F
  0.055556  0.000000  0.000000    0.00308642   2 t-inv F
  0.111111  0.000000  0.000000    0.00308642   3 t-inv F
  0.166667  0.000000  0.000000    0.00308642   4 t-inv F
  0.222222  0.000000  0.000000    0.00308642   5 t-inv F
  0.277778  0.000000  0.000000    0.00308642   6 t-inv F
  0.333333  0.000000  0.000000    0.00308642   7 t-inv F
  0.388889  0.000000  0.000000    0.00308642   8 t-inv F
  0.444444  0.000000  0.000000    0.00308642   9 t-inv F
  0.500000  0.000000  0.000000    0.00308642  10 t-inv F
  0.055556  0.055556  0.000000    0.00308642  11 t-inv F
  0.111111  0.055556  0.000000    0.00308642  12 t-inv F
  0.166667  0.055556  0.000000    0.00308642  13 t-inv F
  0.222222  0.055556  0.000000    0.00308642  14 t-inv F
  0.277778  0.055556  0.000000    0.00308642  15 t-inv F
  0.333333  0.055556  0.000000    0.00308642  16 t-inv F
  0.388889  0.055556  0.000000    0.00308642  17 t-inv F
  0.444444  0.055556  0.000000    0.00308642  18 t-inv F
  0.111111  0.111111  0.000000    0.00308642  19 t-inv F
  0.166667  0.111111  0.000000    0.00308642  20 t-inv F
  0.222222  0.111111  0.000000    0.00308642  21 t-inv F
  0.277778  0.111111  0.000000    0.00308642  22 t-inv F
  0.333333  0.111111  0.000000    0.00308642  23 t-inv F
  0.388889  0.111111  0.000000    0.00308642  24 t-inv F
  0.444444  0.111111  0.000000    0.00308642  25 t-inv F
  0.166667  0.166667  0.000000    0.00308642  26 t-inv F
  0.222222  0.166667  0.000000    0.00308642  27 t-inv F
  0.277778  0.166667  0.000000    0.00308642  28 t-inv F
  0.333333  0.166667  0.000000    0.00308642  29 t-inv F
  0.388889  0.166667  0.000000    0.00308642  30 t-inv F
  0.222222  0.222222  0.000000    0.00308642  31 t-inv F
  0.277778  0.222222  0.000000    0.00308642  32 t-inv F
  0.333333  0.222222  0.000000    0.00308642  33 t-inv F
  0.388889  0.222222  0.000000    0.00308642  34 t-inv F
  0.277778  0.277778  0.000000    0.00308642  35 t-inv F
  0.333333  0.277778  0.000000    0.00308642  36 t-inv F
  0.333333  0.333333  0.000000    0.00308642  37 t-inv F
 -0.055556  0.055556  0.000000    0.00308642   2 t-inv F
  0.000000 -0.055556 -0.000000    0.00308642   2 t-inv F
 -0.111111  0.111111  0.000000    0.00308642   3 t-inv F
  0.000000 -0.111111 -0.000000    0.00308642   3 t-inv F
 -0.166667  0.166667  0.000000    0.00308642   4 t-inv F
  0.000000 -0.166667 -0.000000    0.00308642   4 t-inv F
 -0.222222  0.222222  0.000000    0.00308642   5 t-inv F
  0.000000 -0.222222 -0.000000    0.00308642   5 t-inv F
 -0.277778  0.277778  0.000000    0.00308642   6 t-inv F
  0.000000 -0.277778 -0.000000    0.00308642   6 t-inv F
 -0.333333  0.333333  0.000000    0.00308642   7 t-inv F
  0.000000 -0.333333 -0.000000    0.00308642   7 t-inv F
 -0.388889  0.388889  0.000000    0.00308642   8 t-inv F
  0.000000 -0.388889 -0.000000    0.00308642   8 t-inv F
 -0.444444  0.444444  0.000000    0.00308642   9 t-inv F
  0.000000 -0.444444 -0.000000    0.00308642   9 t-inv F
 -0.500000  0.500000  0.000000    0.00308642  10 t-inv F
  0.000000 -0.500000 -0.000000    0.00308642  10 t-inv F
 -0.055556  0.111111  0.000000    0.00308642  11 t-inv F
  0.055556 -0.111111 -0.000000    0.00308642  11 t-inv F
 -0.111111  0.055556  0.000000    0.00308642  11 t-inv F
 -0.055556 -0.055556 -0.000000    0.00308642  11 t-inv F
  0.111111 -0.055556  0.000000    0.00308642  11 t-inv F
 -0.111111  0.166667  0.000000    0.00308642  12 t-inv F
  0.055556 -0.166667 -0.000000    0.00308642  12 t-inv F
 -0.166667  0.111111  0.000000    0.00308642  12 t-inv F
 -0.055556 -0.111111 -0.000000    0.00308642  12 t-inv F
  0.166667 -0.055556  0.000000    0.00308642  12 t-inv F
 -0.166667  0.222222  0.000000    0.00308642  13 t-inv F
  0.055556 -0.222222 -0.000000    0.00308642  13 t-inv F
 -0.222222  0.166667  0.000000    0.00308642  13 t-inv F
 -0.055556 -0.166667 -0.000000    0.00308642  13 t-inv F
  0.222222 -0.055556  0.000000    0.00308642  13 t-inv F
 -0.222222  0.277778  0.000000    0.00308642  14 t-inv F
  0.055556 -0.277778 -0.000000    0.00308642  14 t-inv F
 -0.277778  0.222222  0.000000    0.00308642  14 t-inv F
 -0.055556 -0.222222 -0.000000    0.00308642  14 t-inv F
  0.277778 -0.055556  0.000000    0.00308642  14 t-inv F
 -0.277778  0.333333  0.000000    0.00308642  15 t-inv F
  0.055556 -0.333333 -0.000000    0.00308642  15 t-inv F
 -0.333333  0.277778  0.000000    0.00308642  15 t-inv F
 -0.055556 -0.277778 -0.000000    0.00308642  15 t-inv F
  0.333333 -0.055556  0.000000    0.00308642  15 t-inv F
 -0.333333  0.388889  0.000000    0.00308642  16 t-inv F
  0.055556 -0.388889 -0.000000    0.00308642  16 t-inv F
 -0.388889  0.333333  0.000000    0.00308642  16 t-inv F
 -0.055556 -0.333333 -0.000000    0.00308642  16 t-inv F
  0.388889 -0.055556  0.000000    0.00308642  16 t-inv F
 -0.388889  0.444444  0.000000    0.00308642  17 t-inv F
  0.055556 -0.444444 -0.000000    0.00308642  17 t-inv F
 -0.444444  0.388889  0.000000    0.00308642  17 t-inv F
 -0.055556 -0.388889 -0.000000    0.00308642  17 t-inv F
  0.444444 -0.055556  0.000000    0.00308642  17 t-inv F
 -0.444444  0.500000  0.000000    0.00308642  18 t-inv F
  0.055556 -0.500000 -0.000000    0.00308642  18 t-inv F
 -0.500000  0.444444  0.000000    0.00308642  18 t-inv F
 -0.055556 -0.444444 -0.000000    0.00308642  18 t-inv F
  0.500000 -0.055556  0.000000    0.00308642  18 t-inv F
 -0.111111  0.222222  0.000000    0.00308642  19 t-inv F
  0.111111 -0.222222 -0.000000    0.00308642  19 t-inv F
 -0.222222  0.111111  0.000000    0.00308642  19 t-inv F
 -0.111111 -0.111111 -0.000000    0.00308642  19 t-inv F
  0.222222 -0.111111  0.000000    0.00308642  19 t-inv F
 -0.166667  0.277778  0.000000    0.00308642  20 t-inv F
  0.111111 -0.277778 -0.000000    0.00308642  20 t-inv F
 -0.277778  0.166667  0.000000    0.00308642  20 t-inv F
 -0.111111 -0.166667 -0.000000    0.00308642  20 t-inv F
  0.277778 -0.111111  0.000000    0.00308642  20 t-inv F
 -0.222222  0.333333  0.000000    0.00308642  21 t-inv F
  0.111111 -0.333333 -0.000000    0.00308642  21 t-inv F
 -0.333333  0.222222  0.000000    0.00308642  21 t-inv F
 -0.111111 -0.222222 -0.000000    0.00308642  21 t-inv F
  0.333333 -0.111111  0.000000    0.00308642  21 t-inv F
 -0.277778  0.388889  0.000000    0.00308642  22 t-inv F
  0.111111 -0.388889 -0.000000    0.00308642  22 t-inv F
 -0.388889  0.277778  0.000000    0.00308642  22 t-inv F
 -0.111111 -0.277778 -0.000000    0.00308642  22 t-inv F
  0.388889 -0.111111  0.000000    0.00308642  22 t-inv F
 -0.333333  0.444444  0.000000    0.00308642  23 t-inv F
  0.111111 -0.444444 -0.000000    0.00308642  23 t-inv F
 -0.444444  0.333333  0.000000    0.00308642  23 t-inv F
 -0.111111 -0.333333 -0.000000    0.00308642  23 t-inv F
  0.444444 -0.111111  0.000000    0.00308642  23 t-inv F
 -0.388889  0.500000  0.000000    0.00308642  24 t-inv F
  0.111111 -0.500000 -0.000000    0.00308642  24 t-inv F
 -0.500000  0.388889  0.000000    0.00308642  24 t-inv F
 -0.111111 -0.388889 -0.000000    0.00308642  24 t-inv F
  0.500000 -0.111111  0.000000    0.00308642  24 t-inv F
 -0.444444  0.555556  0.000000    0.00308642  25 t-inv F
  0.111111 -0.555556 -0.000000    0.00308642  25 t-inv F
 -0.555556  0.444444  0.000000    0.00308642  25 t-inv F
 -0.111111 -0.444444 -0.000000    0.00308642  25 t-inv F
  0.555556 -0.111111  0.000000    0.00308642  25 t-inv F
 -0.166667  0.333333  0.000000    0.00308642  26 t-inv F
  0.166667 -0.333333 -0.000000    0.00308642  26 t-inv F
 -0.333333  0.166667  0.000000    0.00308642  26 t-inv F
 -0.166667 -0.166667 -0.000000    0.00308642  26 t-inv F
  0.333333 -0.166667  0.000000    0.00308642  26 t-inv F
 -0.222222  0.388889  0.000000    0.00308642  27 t-inv F
  0.166667 -0.388889 -0.000000    0.00308642  27 t-inv F
 -0.388889  0.222222  0.000000    0.00308642  27 t-inv F
 -0.166667 -0.222222 -0.000000    0.00308642  27 t-inv F
  0.388889 -0.166667  0.000000    0.00308642  27 t-inv F
 -0.277778  0.444444  0.000000    0.00308642  28 t-inv F
  0.166667 -0.444444 -0.000000    0.00308642  28 t-inv F
 -0.444444  0.277778  0.000000    0.00308642  28 t-inv F
 -0.166667 -0.277778 -0.000000    0.00308642  28 t-inv F
  0.444444 -0.166667  0.000000    0.00308642  28 t-inv F
 -0.333333  0.500000  0.000000    0.00308642  29 t-inv F
  0.166667 -0.500000 -0.000000    0.00308642  29 t-inv F
 -0.500000  0.333333  0.000000    0.00308642  29 t-inv F
 -0.166667 -0.333333 -0.000000    0.00308642  29 t-inv F
  0.500000 -0.166667  0.000000    0.00308642  29 t-inv F
 -0.388889  0.555556  0.000000    0.00308642  30 t-inv F
  0.166667 -0.555556 -0.000000    0.00308642  30 t-inv F
 -0.555556  0.388889  0.000000    0.00308642  30 t-inv F
 -0.166667 -0.388889 -0.000000    0.00308642  30 t-inv F
  0.555556 -0.166667  0.000000    0.00308642  30 t-inv F
 -0.222222  0.444444  0.000000    0.00308642  31 t-inv F
  0.222222 -0.444444 -0.000000    0.00308642  31 t-inv F
 -0.444444  0.222222  0.000000    0.00308642  31 t-inv F
 -0.222222 -0.222222 -0.000000    0.00308642  31 t-inv F
  0.444444 -0.222222  0.000000    0.00308642  31 t-inv F
 -0.277778  0.500000  0.000000    0.00308642  32 t-inv F
  0.222222 -0.500000 -0.000000    0.00308642  32 t-inv F
 -0.500000  0.277778  0.000000    0.00308642  32 t-inv F
 -0.222222 -0.277778 -0.000000    0.00308642  32 t-inv F
  0.500000 -0.222222  0.000000    0.00308642  32 t-inv F
 -0.333333  0.555556  0.000000    0.00308642  33 t-inv F
  0.222222 -0.555556 -0.000000    0.00308642  33 t-inv F
 -0.555556  0.333333  0.000000    0.00308642  33 t-inv F
 -0.222222 -0.333333 -0.000000    0.00308642  33 t-inv F
  0.555556 -0.222222  0.000000    0.00308642  33 t-inv F
 -0.388889  0.611111  0.000000    0.00308642  34 t-inv F
  0.222222 -0.611111 -0.000000    0.00308642  34 t-inv F
 -0.611111  0.388889  0.000000    0.00308642  34 t-inv F
 -0.222222 -0.388889 -0.000000    0.00308642  34 t-inv F
  0.611111 -0.222222  0.000000    0.00308642  34 t-inv F
 -0.277778  0.555556  0.000000    0.00308642  35 t-inv F
  0.277778 -0.555556 -0.000000    0.00308642  35 t-inv F
 -0.555556  0.277778  0.000000    0.00308642  35 t-inv F
 -0.277778 -0.277778 -0.000000    0.00308642  35 t-inv F
  0.555556 -0.277778  0.000000    0.00308642  35 t-inv F
 -0.333333  0.611111  0.000000    0.00308642  36 t-inv F
  0.277778 -0.611111 -0.000000    0.00308642  36 t-inv F
 -0.611111  0.333333  0.000000    0.00308642  36 t-inv F
 -0.277778 -0.333333 -0.000000    0.00308642  36 t-inv F
  0.611111 -0.277778  0.000000    0.00308642  36 t-inv F
 -0.333333  0.666667  0.000000    0.00308642  37 t-inv F
 -0.055556 -0.000000 -0.000000    0.00308642   2 t-inv T
  0.055556 -0.055556 -0.000000    0.00308642   2 t-inv T
 -0.000000  0.055556  0.000000    0.00308642   2 t-inv T
 -0.111111 -0.000000 -0.000000    0.00308642   3 t-inv T
  0.111111 -0.111111 -0.000000    0.00308642   3 t-inv T
 -0.000000  0.111111  0.000000    0.00308642   3 t-inv T
 -0.166667 -0.000000 -0.000000    0.00308642   4 t-inv T
  0.166667 -0.166667 -0.000000    0.00308642   4 t-inv T
 -0.000000  0.166667  0.000000    0.00308642   4 t-inv T
 -0.222222 -0.000000 -0.000000    0.00308642   5 t-inv T
  0.222222 -0.222222 -0.000000    0.00308642   5 t-inv T
 -0.000000  0.222222  0.000000    0.00308642   5 t-inv T
 -0.277778 -0.000000 -0.000000    0.00308642   6 t-inv T
  0.277778 -0.277778 -0.000000    0.00308642   6 t-inv T
 -0.000000  0.277778  0.000000    0.00308642   6 t-inv T
 -0.333333 -0.000000 -0.000000    0.00308642   7 t-inv T
  0.333333 -0.333333 -0.000000    0.00308642   7 t-inv T
 -0.000000  0.333333  0.000000    0.00308642   7 t-inv T
 -0.388889 -0.000000 -0.000000    0.00308642   8 t-inv T
  0.388889 -0.388889 -0.000000    0.00308642   8 t-inv T
 -0.000000  0.388889  0.000000    0.00308642   8 t-inv T
 -0.444444 -0.000000 -0.000000    0.00308642   9 t-inv T
  0.444444 -0.444444 -0.000000    0.00308642   9 t-inv T
 -0.000000  0.444444  0.000000    0.00308642   9 t-inv T
 -0.111111 -0.055556 -0.000000    0.00308642  12 t-inv T
  0.111111 -0.166667 -0.000000    0.00308642  12 t-inv T
 -0.055556  0.166667  0.000000    0.00308642  12 t-inv T
  0.166667 -0.111111 -0.000000    0.00308642  12 t-inv T
  0.055556  0.111111  0.000000    0.00308642  12 t-inv T
 -0.166667  0.055556 -0.000000    0.00308642  12 t-inv T
 -0.166667 -0.055556 -0.000000    0.00308642  13 t-inv T
  0.166667 -0.222222 -0.000000    0.00308642  13 t-inv T
 -0.055556  0.222222  0.000000    0.00308642  13 t-inv T
  0.222222 -0.166667 -0.000000    0.00308642  13 t-inv T
  0.055556  0.166667  0.000000    0.00308642  13 t-inv T
 -0.222222  0.055556 -0.000000    0.00308642  13 t-inv T
 -0.222222 -0.055556 -0.000000    0.00308642  14 t-inv T
  0.222222 -0.277778 -0.000000    0.00308642  14 t-inv T
 -0.055556  0.277778  0.000000    0.00308642  14 t-inv T
  0.277778 -0.222222 -0.000000    0.00308642  14 t-inv T
  0.055556  0.222222  0.000000    0.00308642  14 t-inv T
 -0.277778  0.055556 -0.000000    0.00308642  14 t-inv T
 -0.277778 -0.055556 -0.000000    0.00308642  15 t-inv T
  0.277778 -0.333333 -0.000000    0.00308642  15 t-inv T
 -0.055556  0.333333  0.000000    0.00308642  15 t-inv T
  0.333333 -0.277778 -0.000000    0.00308642  15 t-inv T
  0.055556  0.277778  0.000000    0.00308642  15 t-inv T
 -0.333333  0.055556 -0.000000    0.00308642  15 t-inv T
 -0.333333 -0.055556 -0.000000    0.00308642  16 t-inv T
  0.333333 -0.388889 -0.000000    0.00308642  16 t-inv T
 -0.055556  0.388889  0.000000    0.00308642  16 t-inv T
  0.388889 -0.333333 -0.000000    0.00308642  16 t-inv T
  0.055556  0.333333  0.000000    0.00308642  16 t-inv T
 -0.388889  0.055556 -0.000000    0.00308642  16 t-inv T
 -0.388889 -0.055556 -0.000000    0.00308642  17 t-inv T
  0.388889 -0.444444 -0.000000    0.00308642  17 t-inv T
 -0.055556  0.444444  0.000000    0.00308642  17 t-inv T
  0.444444 -0.388889 -0.000000    0.00308642  17 t-inv T
  0.055556  0.388889  0.000000    0.00308642  17 t-inv T
 -0.444444  0.055556 -0.000000    0.00308642  17 t-inv T
 -0.444444 -0.055556 -0.000000    0.00308642  18 t-inv T
  0.444444 -0.500000 -0.000000    0.00308642  18 t-inv T
 -0.055556  0.500000  0.000000    0.00308642  18 t-inv T
  0.500000 -0.444444 -0.000000    0.00308642  18 t-inv T
  0.055556  0.444444  0.000000    0.00308642  18 t-inv T
 -0.500000  0.055556 -0.000000    0.00308642  18 t-inv T
 -0.166667 -0.111111 -0.000000    0.00308642  20 t-inv T
  0.166667 -0.277778 -0.000000    0.00308642  20 t-inv T
 -0.111111  0.277778  0.000000    0.00308642  20 t-inv T
  0.277778 -0.166667 -0.000000    0.00308642  20 t-inv T
  0.111111  0.166667  0.000000    0.00308642  20 t-inv T
 -0.277778  0.111111 -0.000000    0.00308642  20 t-inv T
 -0.222222 -0.111111 -0.000000    0.00308642  21 t-inv T
  0.222222 -0.333333 -0.000000    0.00308642  21 t-inv T
 -0.111111  0.333333  0.000000    0.00308642  21 t-inv T
  0.333333 -0.222222 -0.000000    0.00308642  21 t-inv T
  0.111111  0.222222  0.000000    0.00308642  21 t-inv T
 -0.333333  0.111111 -0.000000    0.00308642  21 t-inv T
 -0.277778 -0.111111 -0.000000    0.00308642  22 t-inv T
  0.277778 -0.388889 -0.000000    0.00308642  22 t-inv T
 -0.111111  0.388889  0.000000    0.00308642  22 t-inv T
  0.388889 -0.277778 -0.000000    0.00308642  22 t-inv T
  0.111111  0.277778  0.000000    0.00308642  22 t-inv T
 -0.388889  0.111111 -0.000000    0.00308642  22 t-inv T
 -0.333333 -0.111111 -0.000000    0.00308642  23 t-inv T
  0.333333 -0.444444 -0.000000    0.00308642  23 t-inv T
 -0.111111  0.444444  0.000000    0.00308642  23 t-inv T
  0.444444 -0.333333 -0.000000    0.00308642  23 t-inv T
  0.111111  0.333333  0.000000    0.00308642  23 t-inv T
 -0.444444  0.111111 -0.000000    0.00308642  23 t-inv T
 -0.388889 -0.111111 -0.000000    0.00308642  24 t-inv T
  0.388889 -0.500000 -0.000000    0.00308642  24 t-inv T
 -0.111111  0.500000  0.000000    0.00308642  24 t-inv T
  0.500000 -0.388889 -0.000000    0.00308642  24 t-inv T
  0.111111  0.388889  0.000000    0.00308642  24 t-inv T
 -0.500000  0.111111 -0.000000    0.00308642  24 t-inv T
 -0.222222 -0.166667 -0.000000    0.00308642  27 t-inv T
  0.222222 -0.388889 -0.000000    0.00308642  27 t-inv T
 -0.166667  0.388889  0.000000    0.00308642  27 t-inv T
  0.388889 -0.222222 -0.000000    0.00308642  27 t-inv T
  0.166667  0.222222  0.000000    0.00308642  27 t-inv T
 -0.388889  0.166667 -0.000000    0.00308642  27 t-inv T
 -0.277778 -0.166667 -0.000000    0.00308642  28 t-inv T
  0.277778 -0.444444 -0.000000    0.00308642  28 t-inv T
 -0.166667  0.444444  0.000000    0.00308642  28 t-inv T
  0.444444 -0.277778 -0.000000    0.00308642  28 t-inv T
  0.166667  0.277778  0.000000    0.00308642  28 t-inv T
 -0.444444  0.166667 -0.000000    0.00308642  28 t-inv T
 -0.333333 -0.166667 -0.000000    0.00308642  29 t-inv T
  0.333333 -0.500000 -0.000000    0.00308642  29 t-inv T
 -0.166667  0.500000  0.000000    0.00308642  29 t-inv T
  0.500000 -0.333333 -0.000000    0.00308642  29 t-inv T
  0.166667  0.333333  0.000000    0.00308642  29 t-inv T
 -0.500000  0.166667 -0.000000    0.00308642  29 t-inv T
 -0.388889 -0.166667 -0.000000    0.00308642  30 t-inv T
  0.388889 -0.555556 -0.000000    0.00308642  30 t-inv T
 -0.166667  0.555556  0.000000    0.00308642  30 t-inv T
  0.555556 -0.388889 -0.000000    0.00308642  30 t-inv T
  0.166667  0.388889  0.000000    0.00308642  30 t-inv T
 -0.555556  0.166667 -0.000000    0.00308642  30 t-inv T
 -0.277778 -0.222222 -0.000000    0.00308642  32 t-inv T
  0.277778 -0.500000 -0.000000    0.00308642  32 t-inv T
 -0.222222  0.500000  0.000000    0.00308642  32 t-inv T
  0.500000 -0.277778 -0.000000    0.00308642  32 t-inv T
  0.222222  0.277778  0.000000    0.00308642  32 t-inv T
 -0.500000  0.222222 -0.000000    0.00308642  32 t-inv T
 -0.333333 -0.222222 -0.000000    0.00308642  33 t-inv T
  0.333333 -0.555556 -0.000000    0.00308642  33 t-inv T
 -0.222222  0.555556  0.000000    0.00308642  33 t-inv T
  0.555556 -0.333333 -0.000000    0.00308642  33 t-inv T
  0.222222  0.333333  0.000000    0.00308642  33 t-inv T
 -0.555556  0.222222 -0.000000    0.00308642  33 t-inv T
 -0.333333 -0.277778 -0.000000    0.00308642  36 t-inv T
  0.333333 -0.611111 -0.000000    0.00308642  36 t-inv T
 -0.277778  0.611111  0.000000    0.00308642  36 t-inv T
  0.611111 -0.333333 -0.000000    0.00308642  36 t-inv T
  0.277778  0.333333  0.000000    0.00308642  36 t-inv T
 -0.611111  0.277778 -0.000000    0.00308642  36 t-inv T


--------------------------------------------------------------------------------------------------------




 Dimension of arrays:
   k-points           NKPTS =     37   k-points in BZ     NKDIM =     37   number of bands    NBANDS=     84
   number of dos      NEDOS =    301   number of ions     NIONS =     15
   non local maximal  LDIM  =     11   non local SUM 2l+1 LMDIM =     41
   total plane-waves  NPLWV = 128000
   max r-space proj   IRMAX =      1   max aug-charges    IRDMAX=  11895
   dimension x,y,z NGX =    20 NGY =   20 NGZ =  320
   dimension x,y,z NGXF=    40 NGYF=   40 NGZF=  640
   support grid    NGXF=    40 NGYF=   40 NGZF=  640
   ions per type =               5  10
 NGX,Y,Z   is equivalent  to a cutoff of  10.02, 10.02, 10.64 a.u.
 NGXF,Y,Z  is equivalent  to a cutoff of  20.03, 20.03, 21.28 a.u.


 I would recommend the setting:
   dimension x,y,z NGX =    20 NGY =   20 NGZ =  303
 SYSTEM =  unknown system                          
 POSCAR =  Mo Se                                   

 Startparameter for this run:
   NWRITE =      2    write-flag & timer
   PREC   = accura    normal or accurate (medium, high low for compatibility)
   ISTART =      0    job   : 0-new  1-cont  2-samecut
   ICHARG =      2    charge: 1-file 2-atom 10-const
   ISPIN  =      1    spin polarized calculation?
   LNONCOLLINEAR =      F non collinear calculations
   LSORBIT =      F    spin-orbit coupling
   INIWAV =      1    electr: 0-lowe 1-rand  2-diag
   LASPH  =      F    aspherical Exc in radial PAW
   METAGGA=      F    non-selfconsistent MetaGGA calc.

 Electronic Relaxation 1
   ENCUT  =  344.9 eV  25.35 Ry    5.03 a.u.   5.03  5.03 75.72*2*pi/ulx,y,z
   ENINI  =  344.9     initial cutoff
   ENAUG  =  964.7 eV  augmentation charge cutoff
   NELM   =     60;   NELMIN=  5; NELMDL= -5     # of ELM steps 
   EDIFF  = 0.1E-07   stopping-criterion for ELM
   LREAL  =      F    real-space projection
   NLSPLINE    = F    spline interpolate recip. space projectors
   LCOMPAT=      F    compatible to vasp.4.4
   GGA_COMPAT  = T    GGA compatible to vasp.4.4-vasp.4.6
   LMAXPAW     = -100 max onsite density
   LMAXMIX     =    2 max onsite mixed and CHGCAR
   VOSKOWN=      0    Vosko Wilk Nusair interpolation
   ROPT   =    0.00000   0.00000
 Ionic relaxation
   EDIFFG = 0.1E-06   stopping-criterion for IOM
   NSW    =      0    number of steps for IOM
   NBLOCK =      1;   KBLOCK =      1    inner block; outer block 
   IBRION =     -1    ionic relax: 0-MD 1-quasi-New 2-CG
   NFREE  =      0    steps in history (QN), initial steepest desc. (CG)
   ISIF   =      2    stress and relaxation
   IWAVPR =     10    prediction:  0-non 1-charg 2-wave 3-comb
   ISYM   =      2    0-nonsym 1-usesym 2-fastsym
   LCORR  =      T    Harris-Foulkes like correction to forces

   POTIM  = 0.5000    time-step for ionic-motion
   TEIN   =    0.0    initial temperature
   TEBEG  =    0.0;   TEEND  =   0.0 temperature during run
   SMASS  =  -3.00    Nose mass-parameter (am)
   estimated Nose-frequenzy (Omega)   =  0.10E-29 period in steps =****** mass=  -0.252E-27a.u.
   SCALEE = 1.0000    scale energy and forces
   NPACO  =    256;   APACO  = 16.0  distance and # of slots for P.C.
   PSTRESS=    0.0 pullay stress

  Mass of Ions in am
   POMASS =  95.94 78.96
  Ionic Valenz
   ZVAL   =  14.00  6.00
  Atomic Wigner-Seitz radii
   RWIGS  =  -1.00 -1.00
  virtual crystal weights 
   VCA    =   1.00  1.00
   NELECT =     130.0000    total number of electrons
   NUPDOWN=      -1.0000    fix difference up-down

 DOS related values:
   EMIN   =  10.00;   EMAX   =-10.00  energy-range for DOS
   EFERMI =   0.00
   ISMEAR =    -5;   SIGMA  =   0.01  broadening in eV -4-tet -1-fermi 0-gaus

 Electronic relaxation 2 (details)
   IALGO  =     38    algorithm
   LDIAG  =      T    sub-space diagonalisation (order eigenvalues)
   LSUBROT=      F    optimize rotation matrix (better conditioning)
   TURBO    =      0    0=normal 1=particle mesh
   IRESTART =      0    0=no restart 2=restart with 2 vectors
   NREBOOT  =      0    no. of reboots
   NMIN     =      0    reboot dimension
   EREF     =   0.00    reference energy to select bands
   IMIX   =      4    mixing-type and parameters
     AMIX     =   0.40;   BMIX     =  1.00
     AMIX_MAG =   1.60;   BMIX_MAG =  1.00
     AMIN     =   0.10
     WC   =   100.;   INIMIX=   1;  MIXPRE=   1;  MAXMIX= -45

 Intra band minimization:
   WEIMIN = 0.0000     energy-eigenvalue tresh-hold
   EBREAK =  0.30E-10  absolut break condition
   DEPER  =   0.30     relativ break condition  

   TIME   =   0.40     timestep for ELM

  volume/ion in A,a.u.               =      31.81       214.69
  Fermi-wavevector in a.u.,A,eV,Ry     =   1.061253  2.005477 15.323669  1.126258
  Thomas-Fermi vector in A             =   2.196663
 
 Write flags
   LWAVE  =      T    write WAVECAR
   LCHARG =      T    write CHGCAR
   LVTOT  =      F    write LOCPOT, total local potential
   LVHAR  =      F    write LOCPOT, Hartree potential only
   LELF   =      F    write electronic localiz. function (ELF)
   LORBIT =      0    0 simple, 1 ext, 2 COOP (PROOUT)


 Dipole corrections
   LMONO  =      F    monopole corrections only (constant potential shift)
   LDIPOL =      F    correct potential (dipole corrections)
   IDIPOL =      0    1-x, 2-y, 3-z, 4-all directions 
   EPSILON=  1.0000000 bulk dielectric constant

 Exchange correlation treatment:
   GGA     =    PE    GGA type
   LEXCH   =     8    internal setting for exchange type
   VOSKOWN=      0    Vosko Wilk Nusair interpolation
   LHFCALC =     F    Hartree Fock is set to
   LHFONE  =     F    Hartree Fock one center treatment
   AEXX    =    0.0000 exact exchange contribution

 Linear response parameters
   LEPSILON=     T    determine dielectric tensor
   LRPA    =     F    only Hartree local field effects (RPA)
   LNABLA  =     F    use nabla operator in PAW spheres
   LVEL    =     F    velocity operator in full k-point grid
   LINTERFAST=   F  fast interpolation
   KINTER  =     0    interpolate to denser k-point grid
   CSHIFT  =0.1000    complex shift for real part using Kramers Kronig
   OMEGAMAX=  -1.0    maximum frequency
   DEG_THRESHOLD= 0.2000000E-02 threshold for treating states as degnerate
   RTIME   =    0.100 relaxation time in fs

 Orbital magnetization related:
   ORBITALMAG=     F  switch on orbital magnetization
   LCHIMAG   =     F  perturbation theory with respect to B field
   DQ        =  0.001000  dq finite difference perturbation B field



--------------------------------------------------------------------------------------------------------


 Static calculation
 charge density and potential will be updated during run
 non-spin polarized calculation
 Variant of blocked Davidson
 Davidson routine will perform the subspace rotation
 perform sub-space diagonalisation
    after iterative eigenvector-optimisation
 modified Broyden-mixing scheme, WC =      100.0
 initial mixing is a Kerker type mixing with AMIX =  0.4000 and BMIX =      1.0000
 Hartree-type preconditioning will be used
 using additional bands           19
 reciprocal scheme for non local part
 use partial core corrections
 calculate Harris-corrections to forces 
   (improved forces if not selfconsistent)
 use gradient corrections 
 use of overlap-Matrix (Vanderbilt PP)
 Fermi weights with tetrahedron method with Bloechl corrections


--------------------------------------------------------------------------------------------------------


  energy-cutoff  :      344.91
  volume of cell :      477.21
      direct lattice vectors                 reciprocal lattice vectors
     3.319748788  0.000000000  0.000000000     0.301227612  0.173913843  0.000000000
    -1.659874394  2.874986784  0.000000000     0.000000000  0.347827686  0.000000000
     0.000000000  0.000000000 50.000000000     0.000000000  0.000000000  0.020000000

  length of vectors
     3.319748788  3.319748788 50.000000000     0.347827686  0.347827686  0.020000000


 
 k-points in units of 2pi/SCALE and weight: KPOINTS created by Atomic Simulation Env
   0.00000000  0.00000000  0.00000000       0.003
   0.01673487  0.00966188  0.00000000       0.019
   0.03346973  0.01932376  0.00000000       0.019
   0.05020460  0.02898564  0.00000000       0.019
   0.06693947  0.03864752  0.00000000       0.019
   0.08367434  0.04830940  0.00000000       0.019
   0.10040920  0.05797128  0.00000000       0.019
   0.11714407  0.06763316  0.00000000       0.019
   0.13387894  0.07729504  0.00000000       0.019
   0.15061381  0.08695692  0.00000000       0.009
   0.01673487  0.02898564  0.00000000       0.019
   0.03346973  0.03864752  0.00000000       0.037
   0.05020460  0.04830940  0.00000000       0.037
   0.06693947  0.05797128  0.00000000       0.037
   0.08367434  0.06763316  0.00000000       0.037
   0.10040920  0.07729504  0.00000000       0.037
   0.11714407  0.08695692  0.00000000       0.037
   0.13387894  0.09661880  0.00000000       0.037
   0.03346973  0.05797128  0.00000000       0.019
   0.05020460  0.06763316  0.00000000       0.037
   0.06693947  0.07729504  0.00000000       0.037
   0.08367434  0.08695692  0.00000000       0.037
   0.10040920  0.09661880  0.00000000       0.037
   0.11714407  0.10628068  0.00000000       0.037
   0.13387894  0.11594256  0.00000000       0.019
   0.05020460  0.08695692  0.00000000       0.019
   0.06693947  0.09661880  0.00000000       0.037
   0.08367434  0.10628068  0.00000000       0.037
   0.10040920  0.11594256  0.00000000       0.037
   0.11714407  0.12560444  0.00000000       0.037
   0.06693947  0.11594256  0.00000000       0.019
   0.08367434  0.12560444  0.00000000       0.037
   0.10040920  0.13526632  0.00000000       0.037
   0.11714407  0.14492820  0.00000000       0.019
   0.08367434  0.14492820  0.00000000       0.019
   0.10040920  0.15459008  0.00000000       0.037
   0.10040920  0.17391384  0.00000000       0.006
 
 k-points in reciprocal lattice and weights: KPOINTS created by Atomic Simulation Env
   0.00000000  0.00000000  0.00000000       0.003
   0.05555556  0.00000000  0.00000000       0.019
   0.11111111  0.00000000  0.00000000       0.019
   0.16666667  0.00000000  0.00000000       0.019
   0.22222222  0.00000000  0.00000000       0.019
   0.27777778  0.00000000  0.00000000       0.019
   0.33333333  0.00000000  0.00000000       0.019
   0.38888889  0.00000000  0.00000000       0.019
   0.44444444  0.00000000  0.00000000       0.019
   0.50000000  0.00000000  0.00000000       0.009
   0.05555556  0.05555556  0.00000000       0.019
   0.11111111  0.05555556  0.00000000       0.037
   0.16666667  0.05555556  0.00000000       0.037
   0.22222222  0.05555556  0.00000000       0.037
   0.27777778  0.05555556  0.00000000       0.037
   0.33333333  0.05555556  0.00000000       0.037
   0.38888889  0.05555556  0.00000000       0.037
   0.44444444  0.05555556  0.00000000       0.037
   0.11111111  0.11111111  0.00000000       0.019
   0.16666667  0.11111111  0.00000000       0.037
   0.22222222  0.11111111  0.00000000       0.037
   0.27777778  0.11111111  0.00000000       0.037
   0.33333333  0.11111111  0.00000000       0.037
   0.38888889  0.11111111  0.00000000       0.037
   0.44444444  0.11111111  0.00000000       0.019
   0.16666667  0.16666667  0.00000000       0.019
   0.22222222  0.16666667  0.00000000       0.037
   0.27777778  0.16666667  0.00000000       0.037
   0.33333333  0.16666667  0.00000000       0.037
   0.38888889  0.16666667  0.00000000       0.037
   0.22222222  0.22222222  0.00000000       0.019
   0.27777778  0.22222222  0.00000000       0.037
   0.33333333  0.22222222  0.00000000       0.037
   0.38888889  0.22222222  0.00000000       0.019
   0.27777778  0.27777778  0.00000000       0.019
   0.33333333  0.27777778  0.00000000       0.037
   0.33333333  0.33333333  0.00000000       0.006
 
 position of ions in fractional coordinates (direct lattice) 
   0.16666667  0.33333333  0.24160000
   0.83333333  0.66666667  0.37080000
   0.16666667  0.33333333  0.50000000
   0.83333333  0.66666667  0.62920000
   0.16666667  0.33333333  0.75840000
   0.83333333  0.66666667  0.27498059
   0.83333333  0.66666667  0.20821941
   0.16666667  0.33333333  0.40418059
   0.16666667  0.33333333  0.33741941
   0.83333333  0.66666667  0.53338059
   0.83333333  0.66666667  0.46661941
   0.16666667  0.33333333  0.66258059
   0.16666667  0.33333333  0.59581941
   0.83333333  0.66666667  0.79178059
   0.83333333  0.66666667  0.72501941
 
 position of ions in cartesian coordinates  (Angst):
  -0.00000000  0.95832893 12.08000000
   1.65987439  1.91665786 18.54000000
  -0.00000000  0.95832893 25.00000000
   1.65987439  1.91665786 31.46000000
  -0.00000000  0.95832893 37.92000000
   1.65987439  1.91665786 13.74902948
   1.65987439  1.91665786 10.41097052
  -0.00000000  0.95832893 20.20902948
  -0.00000000  0.95832893 16.87097052
   1.65987439  1.91665786 26.66902948
   1.65987439  1.91665786 23.33097052
  -0.00000000  0.95832893 33.12902948
  -0.00000000  0.95832893 29.79097052
   1.65987439  1.91665786 39.58902948
   1.65987439  1.91665786 36.25097052
 


--------------------------------------------------------------------------------------------------------


 k-point  1 :   0.0000 0.0000 0.0000  plane waves:    6703
 k-point  2 :   0.0556 0.0000 0.0000  plane waves:    6781
 k-point  3 :   0.1111 0.0000 0.0000  plane waves:    6827
 k-point  4 :   0.1667 0.0000 0.0000  plane waves:    6855
 k-point  5 :   0.2222 0.0000 0.0000  plane waves:    6875
 k-point  6 :   0.2778 0.0000 0.0000  plane waves:    6915
 k-point  7 :   0.3333 0.0000 0.0000  plane waves:    6923
 k-point  8 :   0.3889 0.0000 0.0000  plane waves:    6942
 k-point  9 :   0.4444 0.0000 0.0000  plane waves:    6972
 k-point 10 :   0.5000 0.0000 0.0000  plane waves:    6978
 k-point 11 :   0.0556 0.0556 0.0000  plane waves:    6837
 k-point 12 :   0.1111 0.0556 0.0000  plane waves:    6869
 k-point 13 :   0.1667 0.0556 0.0000  plane waves:    6871
 k-point 14 :   0.2222 0.0556 0.0000  plane waves:    6889
 k-point 15 :   0.2778 0.0556 0.0000  plane waves:    6931
 k-point 16 :   0.3333 0.0556 0.0000  plane waves:    6924
 k-point 17 :   0.3889 0.0556 0.0000  plane waves:    6942
 k-point 18 :   0.4444 0.0556 0.0000  plane waves:    6965
 k-point 19 :   0.1111 0.1111 0.0000  plane waves:    6875
 k-point 20 :   0.1667 0.1111 0.0000  plane waves:    6900
 k-point 21 :   0.2222 0.1111 0.0000  plane waves:    6946
 k-point 22 :   0.2778 0.1111 0.0000  plane waves:    6966
 k-point 23 :   0.3333 0.1111 0.0000  plane waves:    6965
 k-point 24 :   0.3889 0.1111 0.0000  plane waves:    6961
 k-point 25 :   0.4444 0.1111 0.0000  plane waves:    6955
 k-point 26 :   0.1667 0.1667 0.0000  plane waves:    6949
 k-point 27 :   0.2222 0.1667 0.0000  plane waves:    6973
 k-point 28 :   0.2778 0.1667 0.0000  plane waves:    6980
 k-point 29 :   0.3333 0.1667 0.0000  plane waves:    6980
 k-point 30 :   0.3889 0.1667 0.0000  plane waves:    6987
 k-point 31 :   0.2222 0.2222 0.0000  plane waves:    6983
 k-point 32 :   0.2778 0.2222 0.0000  plane waves:    6993
 k-point 33 :   0.3333 0.2222 0.0000  plane waves:    7009
 k-point 34 :   0.3889 0.2222 0.0000  plane waves:    7007
 k-point 35 :   0.2778 0.2778 0.0000  plane waves:    7003
 k-point 36 :   0.3333 0.2778 0.0000  plane waves:    7017
 k-point 37 :   0.3333 0.3333 0.0000  plane waves:    7029

 maximum and minimum number of plane-waves per node :      7029     6703

 maximum number of plane-waves:      7029
 maximum index in each direction: 
   IXMAX=    4   IYMAX=    5   IZMAX=   75
   IXMIN=   -5   IYMIN=   -5   IZMIN=  -75

 NGX is ok and might be reduce to  20
 WARNING: aliasing errors must be expected set NGY to  22 to avoid them
 NGZ is ok and might be reduce to 302
 aliasing errors are usually negligible using standard VASP settings
 and one can safely disregard these warnings

 serial   3D FFT for wavefunctions
 parallel 3D FFT for charge:
    minimum data exchange during FFTs selected (reduces bandwidth)


 total amount of memory used by VASP on root node   227410. kBytes
========================================================================

   base      :      30000. kBytes
   nonl-proj :     172956. kBytes
   fftplans  :       2116. kBytes
   grid      :       8000. kBytes
   one-center:       1210. kBytes
   wavefun   :      13128. kBytes
 
     INWAV:  cpu time    0.0000: real time    0.0000
 Broyden mixing: mesh for mixing (old mesh)
   NGX =  9   NGY =  9   NGZ =151
  (NGX  = 40   NGY  = 40   NGZ  =640)
  gives a total of  12231 points

 initial charge density was supplied:
 charge density of overlapping atoms calculated
 number of electron     130.0000000 magnetization 
 keeping initial charge density in first step


--------------------------------------------------------------------------------------------------------


 Maximum index for augmentation-charges          953 (set IRDMAX)


--------------------------------------------------------------------------------------------------------


 First call to EWALD:  gamma=   0.227
 Maximum number of real-space cells 7x 7x 1
 Maximum number of reciprocal cells 1x 1x15

 FEWALD executed in parallel
    FEWALD:  cpu time    0.0010: real time    0.0013


----------------------------------------- Iteration    1(   1)  ---------------------------------------


    POTLOK:  cpu time    0.0330: real time    0.0340
    SETDIJ:  cpu time    0.0080: real time    0.0081
     EDDAV:  cpu time    7.3469: real time    7.3584
 BZINTS: Fermi energy: 14.552468;130.000000 electrons
         Band energy:-705.677482;  BLOECHL correction: -0.093539
       DOS:  cpu time    0.0250: real time    0.0256
    --------------------------------------------
      LOOP:  cpu time    7.4139: real time    7.4281

 eigenvalue-minimisations  :  7308
 total energy-change (2. order) : 0.9239713E+03  (-0.5662225E+04)
 number of electron     130.0000000 magnetization 
 augmentation part      130.0000000 magnetization 

 Free energy of the ion-electron system (eV)
  ---------------------------------------------------
  alpha Z        PSCENC =       343.54212594
  Ewald energy   TEWEN  =     79630.90186731
  -Hartree energ DENC   =    -90711.01803511
  -exchange      EXHF   =         0.00000000
  -V(xc)+E(xc)   XCENC  =       327.58712897
  PAW double counting   =      9646.75940481    -9486.41609835
  entropy T*S    EENTRO =         0.00000000
  eigenvalues    EBANDS =      -705.67748165
  atomic energy  EATOM  =     11878.29235441
  Solvation  Ediel_sol  =         0.00000000
  ---------------------------------------------------
  free energy    TOTEN  =       923.97126632 eV

  energy without entropy =      923.97126632  energy(sigma->0) =      923.97126632


--------------------------------------------------------------------------------------------------------




----------------------------------------- Iteration    1(   2)  ---------------------------------------


     EDDAV:  cpu time    9.0876: real time    9.0942
 BZINTS: Fermi energy:  5.166199;130.000000 electrons
         Band energy:***********;  BLOECHL correction:  0.000000
       DOS:  cpu time    0.0060: real time    0.0055
    --------------------------------------------
      LOOP:  cpu time    9.0966: real time    9.1033

 eigenvalue-minimisations  :  9240
 total energy-change (2. order) :-0.9602620E+03  (-0.9462454E+03)
 number of electron     130.0000000 magnetization 
 augmentation part      130.0000000 magnetization 

 Free energy of the ion-electron system (eV)
  ---------------------------------------------------
  alpha Z        PSCENC =       343.54212594
  Ewald energy   TEWEN  =     79630.90186731
  -Hartree energ DENC   =    -90711.01803511
  -exchange      EXHF   =         0.00000000
  -V(xc)+E(xc)   XCENC  =       327.58712897
  PAW double counting   =      9646.75940481    -9486.41609835
  entropy T*S    EENTRO =         0.00000000
  eigenvalues    EBANDS =     -1665.93948906
  atomic energy  EATOM  =     11878.29235441
  Solvation  Ediel_sol  =         0.00000000
  ---------------------------------------------------
  free energy    TOTEN  =       -36.29074109 eV

  energy without entropy =      -36.29074109  energy(sigma->0) =      -36.29074109


--------------------------------------------------------------------------------------------------------




----------------------------------------- Iteration    1(   3)  ---------------------------------------


     EDDAV:  cpu time    8.3477: real time    8.3542
 BZINTS: Fermi energy:  3.509954;130.000000 electrons
         Band energy:***********;  BLOECHL correction:  0.000000
       DOS:  cpu time    0.0060: real time    0.0053
    --------------------------------------------
      LOOP:  cpu time    8.3537: real time    8.3619

 eigenvalue-minimisations  :  8344
 total energy-change (2. order) :-0.7900135E+02  (-0.7850683E+02)
 number of electron     130.0000000 magnetization 
 augmentation part      130.0000000 magnetization 

 Free energy of the ion-electron system (eV)
  ---------------------------------------------------
  alpha Z        PSCENC =       343.54212594
  Ewald energy   TEWEN  =     79630.90186731
  -Hartree energ DENC   =    -90711.01803511
  -exchange      EXHF   =         0.00000000
  -V(xc)+E(xc)   XCENC  =       327.58712897
  PAW double counting   =      9646.75940481    -9486.41609835
  entropy T*S    EENTRO =         0.00000000
  eigenvalues    EBANDS =     -1744.94084256
  atomic energy  EATOM  =     11878.29235441
  Solvation  Ediel_sol  =         0.00000000
  ---------------------------------------------------
  free energy    TOTEN  =      -115.29209459 eV

  energy without entropy =     -115.29209459  energy(sigma->0) =     -115.29209459


--------------------------------------------------------------------------------------------------------




----------------------------------------- Iteration    1(   4)  ---------------------------------------


     EDDAV:  cpu time   10.2704: real time   10.2841
 BZINTS: Fermi energy:  3.286291;130.000000 electrons
         Band energy:***********;  BLOECHL correction:  0.000000
       DOS:  cpu time    0.0050: real time    0.0047
    --------------------------------------------
      LOOP:  cpu time   10.2764: real time   10.2914

 eigenvalue-minimisations  : 10388
 total energy-change (2. order) :-0.3295600E+01  (-0.3284041E+01)
 number of electron     130.0000000 magnetization 
 augmentation part      130.0000000 magnetization 

 Free energy of the ion-electron system (eV)
  ---------------------------------------------------
  alpha Z        PSCENC =       343.54212594
  Ewald energy   TEWEN  =     79630.90186731
  -Hartree energ DENC   =    -90711.01803511
  -exchange      EXHF   =         0.00000000
  -V(xc)+E(xc)   XCENC  =       327.58712897
  PAW double counting   =      9646.75940481    -9486.41609835
  entropy T*S    EENTRO =         0.00000000
  eigenvalues    EBANDS =     -1748.23644243
  atomic energy  EATOM  =     11878.29235441
  Solvation  Ediel_sol  =         0.00000000
  ---------------------------------------------------
  free energy    TOTEN  =      -118.58769446 eV

  energy without entropy =     -118.58769446  energy(sigma->0) =     -118.58769446


--------------------------------------------------------------------------------------------------------




----------------------------------------- Iteration    1(   5)  ---------------------------------------


     EDDAV:  cpu time    8.5557: real time    8.5670
 BZINTS: Fermi energy:  3.340379;130.000000 electrons
         Band energy:***********;  BLOECHL correction:  0.000000
       DOS:  cpu time    0.0050: real time    0.0046
    CHARGE:  cpu time    0.2520: real time    0.2527
    MIXING:  cpu time    0.0020: real time    0.0013
    --------------------------------------------
      LOOP:  cpu time    8.8157: real time    8.8316

 eigenvalue-minimisations  :  8092
 total energy-change (2. order) :-0.3761252E-01  (-0.3752632E-01)
 number of electron     130.0000010 magnetization 
 augmentation part      -13.9457097 magnetization 

 Broyden mixing:
  rms(total) = 0.21699E+01    rms(broyden)= 0.21684E+01
  rms(prec ) = 0.22282E+01
  weight for this iteration     100.00

 Free energy of the ion-electron system (eV)
  ---------------------------------------------------
  alpha Z        PSCENC =       343.54212594
  Ewald energy   TEWEN  =     79630.90186731
  -Hartree energ DENC   =    -90711.01803511
  -exchange      EXHF   =         0.00000000
  -V(xc)+E(xc)   XCENC  =       327.58712897
  PAW double counting   =      9646.75940481    -9486.41609835
  entropy T*S    EENTRO =         0.00000000
  eigenvalues    EBANDS =     -1748.27405495
  atomic energy  EATOM  =     11878.29235441
  Solvation  Ediel_sol  =         0.00000000
  ---------------------------------------------------
  free energy    TOTEN  =      -118.62530698 eV

  energy without entropy =     -118.62530698  energy(sigma->0) =     -118.62530698


--------------------------------------------------------------------------------------------------------




----------------------------------------- Iteration    1(   6)  ---------------------------------------


    POTLOK:  cpu time    0.0330: real time    0.0326
    SETDIJ:  cpu time    0.0080: real time    0.0081
     EDDAV:  cpu time   10.8873: real time   10.9007
 BZINTS: Fermi energy:  1.553818;130.000000 electrons
         Band energy:***********;  BLOECHL correction:  0.000000
       DOS:  cpu time    0.0050: real time    0.0051
    CHARGE:  cpu time    0.2520: real time    0.2526
    MIXING:  cpu time    0.0010: real time    0.0012
    --------------------------------------------
      LOOP:  cpu time   11.1873: real time   11.2029

 eigenvalue-minimisations  : 10780
 total energy-change (2. order) : 0.9685359E+01  (-0.1166989E+02)
 number of electron     130.0000002 magnetization 
 augmentation part      -10.8643573 magnetization 

 Broyden mixing:
  rms(total) = 0.13025E+01    rms(broyden)= 0.13018E+01
  rms(prec ) = 0.13620E+01
  weight for this iteration     100.00

 eigenvalues of (default mixing * dielectric matrix)
  average eigenvalue GAMMA=   0.6710
  0.6710

 Free energy of the ion-electron system (eV)
  ---------------------------------------------------
  alpha Z        PSCENC =       343.54212594
  Ewald energy   TEWEN  =     79630.90186731
  -Hartree energ DENC   =    -90442.62736295
  -exchange      EXHF   =         0.00000000
  -V(xc)+E(xc)   XCENC  =       320.48140575
  PAW double counting   =      9148.40181915    -8994.26932483
  entropy T*S    EENTRO =         0.00000000
  eigenvalues    EBANDS =     -1993.66283262
  atomic energy  EATOM  =     11878.29235441
  Solvation  Ediel_sol  =         0.00000000
  ---------------------------------------------------
  free energy    TOTEN  =      -108.93994785 eV

  energy without entropy =     -108.93994785  energy(sigma->0) =     -108.93994785


--------------------------------------------------------------------------------------------------------




----------------------------------------- Iteration    1(   7)  ---------------------------------------


    POTLOK:  cpu time    0.0310: real time    0.0312
    SETDIJ:  cpu time    0.0080: real time    0.0081
     EDDAV:  cpu time   11.1553: real time   11.1713
 BZINTS: Fermi energy:  2.440184;130.000000 electrons
         Band energy:***********;  BLOECHL correction:  0.000000
       DOS:  cpu time    0.0050: real time    0.0050
    CHARGE:  cpu time    0.2510: real time    0.2516
    MIXING:  cpu time    0.0020: real time    0.0014
    --------------------------------------------
      LOOP:  cpu time   11.4533: real time   11.4713

 eigenvalue-minimisations  : 10892
 total energy-change (2. order) : 0.4887937E+01  (-0.3556548E+01)
 number of electron     130.0000006 magnetization 
 augmentation part      -12.2671621 magnetization 

 Broyden mixing:
  rms(total) = 0.61478E+00    rms(broyden)= 0.61437E+00
  rms(prec ) = 0.62094E+00
  weight for this iteration     100.00

 eigenvalues of (default mixing * dielectric matrix)
  average eigenvalue GAMMA=   1.5387
  2.5156  0.5617

 Free energy of the ion-electron system (eV)
  ---------------------------------------------------
  alpha Z        PSCENC =       343.54212594
  Ewald energy   TEWEN  =     79630.90186731
  -Hartree energ DENC   =    -90579.19130381
  -exchange      EXHF   =         0.00000000
  -V(xc)+E(xc)   XCENC  =       322.98038718
  PAW double counting   =      9451.41278459    -9294.00615108
  entropy T*S    EENTRO =         0.00000000
  eigenvalues    EBANDS =     -1857.98407560
  atomic energy  EATOM  =     11878.29235441
  Solvation  Ediel_sol  =         0.00000000
  ---------------------------------------------------
  free energy    TOTEN  =      -104.05201107 eV

  energy without entropy =     -104.05201107  energy(sigma->0) =     -104.05201107


--------------------------------------------------------------------------------------------------------




----------------------------------------- Iteration    1(   8)  ---------------------------------------


    POTLOK:  cpu time    0.0320: real time    0.0332
    SETDIJ:  cpu time    0.0080: real time    0.0081
     EDDAV:  cpu time   11.3113: real time   11.3218
 BZINTS: Fermi energy:  2.142863;130.000000 electrons
         Band energy:***********;  BLOECHL correction:  0.000000
       DOS:  cpu time    0.0050: real time    0.0050
    CHARGE:  cpu time    0.2520: real time    0.2522
    MIXING:  cpu time    0.0010: real time    0.0011
    --------------------------------------------
      LOOP:  cpu time   11.6112: real time   11.6239

 eigenvalue-minimisations  : 11032
 total energy-change (2. order) : 0.3053558E+00  (-0.3473638E+00)
 number of electron     130.0000005 magnetization 
 augmentation part      -11.9464339 magnetization 

 Broyden mixing:
  rms(total) = 0.14473E+00    rms(broyden)= 0.14464E+00
  rms(prec ) = 0.14962E+00
  weight for this iteration     100.00

 eigenvalues of (default mixing * dielectric matrix)
  average eigenvalue GAMMA=   1.3545
  0.5429  1.0487  2.4721

 Free energy of the ion-electron system (eV)
  ---------------------------------------------------
  alpha Z        PSCENC =       343.54212594
  Ewald energy   TEWEN  =     79630.90186731
  -Hartree energ DENC   =    -90545.75260646
  -exchange      EXHF   =         0.00000000
  -V(xc)+E(xc)   XCENC  =       321.77155071
  PAW double counting   =      9404.16512574    -9246.71831252
  entropy T*S    EENTRO =         0.00000000
  eigenvalues    EBANDS =     -1889.94876035
  atomic energy  EATOM  =     11878.29235441
  Solvation  Ediel_sol  =         0.00000000
  ---------------------------------------------------
  free energy    TOTEN  =      -103.74665523 eV

  energy without entropy =     -103.74665523  energy(sigma->0) =     -103.74665523


--------------------------------------------------------------------------------------------------------




----------------------------------------- Iteration    1(   9)  ---------------------------------------


    POTLOK:  cpu time    0.0310: real time    0.0309
    SETDIJ:  cpu time    0.0080: real time    0.0082
     EDDAV:  cpu time   10.0115: real time   10.0565
 BZINTS: Fermi energy:  2.271688;130.000000 electrons
         Band energy:***********;  BLOECHL correction:  0.000000
       DOS:  cpu time    0.0060: real time    0.0056
    CHARGE:  cpu time    0.2480: real time    0.2556
    MIXING:  cpu time    0.0010: real time    0.0012
    --------------------------------------------
      LOOP:  cpu time   10.3054: real time   10.3608

 eigenvalue-minimisations  :  9772
 total energy-change (2. order) : 0.5541850E-01  (-0.2581923E-01)
 number of electron     130.0000005 magnetization 
 augmentation part      -12.0635301 magnetization 

 Broyden mixing:
  rms(total) = 0.51065E-01    rms(broyden)= 0.51045E-01
  rms(prec ) = 0.51844E-01
  weight for this iteration     100.00

 eigenvalues of (default mixing * dielectric matrix)
  average eigenvalue GAMMA=   1.3199
  2.5756  1.3174  0.5454  0.8414

 Free energy of the ion-electron system (eV)
  ---------------------------------------------------
  alpha Z        PSCENC =       343.54212594
  Ewald energy   TEWEN  =     79630.90186731
  -Hartree energ DENC   =    -90563.34934158
  -exchange      EXHF   =         0.00000000
  -V(xc)+E(xc)   XCENC  =       322.15268661
  PAW double counting   =      9438.94889542    -9281.09725901
  entropy T*S    EENTRO =         0.00000000
  eigenvalues    EBANDS =     -1873.08256581
  atomic energy  EATOM  =     11878.29235441
  Solvation  Ediel_sol  =         0.00000000
  ---------------------------------------------------
  free energy    TOTEN  =      -103.69123673 eV

  energy without entropy =     -103.69123673  energy(sigma->0) =     -103.69123673


--------------------------------------------------------------------------------------------------------




----------------------------------------- Iteration    1(  10)  ---------------------------------------


    POTLOK:  cpu time    0.0310: real time    0.0337
    SETDIJ:  cpu time    0.0080: real time    0.0081
     EDDAV:  cpu time    9.9685: real time   10.5235
 BZINTS: Fermi energy:  2.302466;130.000000 electrons
         Band energy:***********;  BLOECHL correction:  0.000000
       DOS:  cpu time    0.0050: real time    0.0050
    CHARGE:  cpu time    0.2670: real time    0.2663
    MIXING:  cpu time    0.0010: real time    0.0012
    --------------------------------------------
      LOOP:  cpu time   10.2824: real time   10.8405

 eigenvalue-minimisations  : 10024
 total energy-change (2. order) : 0.2524794E-02  (-0.3509627E-02)
 number of electron     130.0000005 magnetization 
 augmentation part      -12.0953999 magnetization 

 Broyden mixing:
  rms(total) = 0.22334E-01    rms(broyden)= 0.22322E-01
  rms(prec ) = 0.22814E-01
  weight for this iteration     100.00

 eigenvalues of (default mixing * dielectric matrix)
  average eigenvalue GAMMA=   1.3401
  2.6584  1.7080  0.5467  1.0004  0.7870

 Free energy of the ion-electron system (eV)
  ---------------------------------------------------
  alpha Z        PSCENC =       343.54212594
  Ewald energy   TEWEN  =     79630.90186731
  -Hartree energ DENC   =    -90567.59097616
  -exchange      EXHF   =         0.00000000
  -V(xc)+E(xc)   XCENC  =       322.29727064
  PAW double counting   =      9452.35477333    -9294.39263748
  entropy T*S    EENTRO =         0.00000000
  eigenvalues    EBANDS =     -1869.09348992
  atomic energy  EATOM  =     11878.29235441
  Solvation  Ediel_sol  =         0.00000000
  ---------------------------------------------------
  free energy    TOTEN  =      -103.68871193 eV

  energy without entropy =     -103.68871193  energy(sigma->0) =     -103.68871193


--------------------------------------------------------------------------------------------------------




----------------------------------------- Iteration    1(  11)  ---------------------------------------


    POTLOK:  cpu time    0.0350: real time    0.0348
    SETDIJ:  cpu time    0.0080: real time    0.0082
     EDDAV:  cpu time    9.5006: real time    9.5125
 BZINTS: Fermi energy:  2.313956;130.000000 electrons
         Band energy:***********;  BLOECHL correction:  0.000000
       DOS:  cpu time    0.0050: real time    0.0050
    CHARGE:  cpu time    0.2720: real time    0.2725
    MIXING:  cpu time    0.0010: real time    0.0013
    --------------------------------------------
      LOOP:  cpu time    9.8215: real time    9.8403

 eigenvalue-minimisations  :  9352
 total energy-change (2. order) : 0.6889902E-03  (-0.7397864E-03)
 number of electron     130.0000005 magnetization 
 augmentation part      -12.0917738 magnetization 

 Broyden mixing:
  rms(total) = 0.11249E-01    rms(broyden)= 0.11244E-01
  rms(prec ) = 0.11706E-01
  weight for this iteration     100.00

 eigenvalues of (default mixing * dielectric matrix)
  average eigenvalue GAMMA=   1.3081
  2.5368  1.6136  1.6136  0.9571  0.5476  0.5800

 Free energy of the ion-electron system (eV)
  ---------------------------------------------------
  alpha Z        PSCENC =       343.54212594
  Ewald energy   TEWEN  =     79630.90186731
  -Hartree energ DENC   =    -90570.87571578
  -exchange      EXHF   =         0.00000000
  -V(xc)+E(xc)   XCENC  =       322.33628745
  PAW double counting   =      9454.08600579    -9296.14344408
  entropy T*S    EENTRO =         0.00000000
  eigenvalues    EBANDS =     -1865.82750398
  atomic energy  EATOM  =     11878.29235441
  Solvation  Ediel_sol  =         0.00000000
  ---------------------------------------------------
  free energy    TOTEN  =      -103.68802294 eV

  energy without entropy =     -103.68802294  energy(sigma->0) =     -103.68802294


--------------------------------------------------------------------------------------------------------




----------------------------------------- Iteration    1(  12)  ---------------------------------------


    POTLOK:  cpu time    0.0330: real time    0.0331
    SETDIJ:  cpu time    0.0080: real time    0.0081
     EDDAV:  cpu time   10.1275: real time   10.1372
 BZINTS: Fermi energy:  2.315210;130.000000 electrons
         Band energy:***********;  BLOECHL correction:  0.000000
       DOS:  cpu time    0.0050: real time    0.0050
    CHARGE:  cpu time    0.2640: real time    0.2641
    MIXING:  cpu time    0.0010: real time    0.0013
    --------------------------------------------
      LOOP:  cpu time   10.4394: real time   10.4516

 eigenvalue-minimisations  :  9604
 total energy-change (2. order) : 0.3503025E-03  (-0.1686460E-03)
 number of electron     130.0000005 magnetization 
 augmentation part      -12.0831175 magnetization 

 Broyden mixing:
  rms(total) = 0.44260E-02    rms(broyden)= 0.44240E-02
  rms(prec ) = 0.47638E-02
  weight for this iteration     100.00

 eigenvalues of (default mixing * dielectric matrix)
  average eigenvalue GAMMA=   1.3554
  2.4262  2.4262  1.4943  1.1394  0.8753  0.5474  0.5787

 Free energy of the ion-electron system (eV)
  ---------------------------------------------------
  alpha Z        PSCENC =       343.54212594
  Ewald energy   TEWEN  =     79630.90186731
  -Hartree energ DENC   =    -90571.60976687
  -exchange      EXHF   =         0.00000000
  -V(xc)+E(xc)   XCENC  =       322.31912200
  PAW double counting   =      9450.42900773    -9292.54181782
  entropy T*S    EENTRO =         0.00000000
  eigenvalues    EBANDS =     -1865.02056534
  atomic energy  EATOM  =     11878.29235441
  Solvation  Ediel_sol  =         0.00000000
  ---------------------------------------------------
  free energy    TOTEN  =      -103.68767264 eV

  energy without entropy =     -103.68767264  energy(sigma->0) =     -103.68767264


--------------------------------------------------------------------------------------------------------




----------------------------------------- Iteration    1(  13)  ---------------------------------------


    POTLOK:  cpu time    0.0330: real time    0.0368
    SETDIJ:  cpu time    0.0080: real time    0.0085
     EDDAV:  cpu time    8.9196: real time    9.0674
 BZINTS: Fermi energy:  2.327297;130.000000 electrons
         Band energy:***********;  BLOECHL correction:  0.000000
       DOS:  cpu time    0.0050: real time    0.0050
    CHARGE:  cpu time    0.2480: real time    0.2477
    MIXING:  cpu time    0.0000: real time    0.0013
    --------------------------------------------
      LOOP:  cpu time    9.2146: real time    9.3761

 eigenvalue-minimisations  :  8344
 total energy-change (2. order) : 0.1012228E-03  (-0.4317595E-04)
 number of electron     130.0000005 magnetization 
 augmentation part      -12.0835963 magnetization 

 Broyden mixing:
  rms(total) = 0.19081E-02    rms(broyden)= 0.19065E-02
  rms(prec ) = 0.21892E-02
  weight for this iteration     100.00

 eigenvalues of (default mixing * dielectric matrix)
  average eigenvalue GAMMA=   1.3710
  2.5410  2.5410  1.4688  1.4688  0.9086  0.9086  0.5468  0.5843

 Free energy of the ion-electron system (eV)
  ---------------------------------------------------
  alpha Z        PSCENC =       343.54212594
  Ewald energy   TEWEN  =     79630.90186731
  -Hartree energ DENC   =    -90573.47604336
  -exchange      EXHF   =         0.00000000
  -V(xc)+E(xc)   XCENC  =       322.33077003
  PAW double counting   =      9449.57441379    -9291.70146796
  entropy T*S    EENTRO =         0.00000000
  eigenvalues    EBANDS =     -1863.15159157
  atomic energy  EATOM  =     11878.29235441
  Solvation  Ediel_sol  =         0.00000000
  ---------------------------------------------------
[...]
    HAMIL1:  cpu time    1.5838: real time    1.5851
    LRDIAG:  cpu time    0.2660: real time    0.2663
    LRDIIS:  cpu time    5.7921: real time    5.7957
    LRDIAG:  cpu time    0.2670: real time    0.2663
    MIXING:  cpu time    0.0020: real time    0.0021
    --------------------------------------------
      LOOP:  cpu time    8.6557: real time    8.6635

 Broyden mixing:
  rms(total) = 0.20681E-05    rms(broyden)= 0.20627E-05
  rms(prec ) = 0.21827E-05
  weight for this iteration     100.00

 eigenvalues of (default mixing * dielectric matrix)
  average eigenvalue GAMMA=   2.1016
  9.4096  7.2914  4.3542  3.6805  2.7643  2.7643  1.9645  1.9645  1.3117  1.3117
  1.1788  0.9488  0.9488  0.9108  0.9108  0.8289  0.7137  0.7006  0.5844  0.5624
  0.5624  0.5682

 Free energy of the ion-electron system (eV)
  ---------------------------------------------------
  -Hartree energ DENC   =        -1.26468858
  -V(xc)+E(xc)   XCENC  =         0.02292697
  PAW double counting   =         0.06755621       -0.06691435
  entropy T*S    EENTRO =         0.00000000
  eigenvalues    EBANDS =        -0.49990724
  ---------------------------------------------------
  free energy    TOTEN  =        -1.74102700 eV

  energy without entropy =       -1.74102700


----------------------------------------- Iteration    3(  25)  ---------------------------------------


   POT+DIJ:  cpu time    0.0840: real time    0.0837
    HAMIL1:  cpu time    1.5898: real time    1.5919
    LRDIAG:  cpu time    0.2670: real time    0.2666
    LRDIIS:  cpu time    5.8561: real time    5.8599
    LRDIAG:  cpu time    0.2590: real time    0.2587
    MIXING:  cpu time    0.0020: real time    0.0021
    --------------------------------------------
      LOOP:  cpu time    8.7087: real time    8.7179

 Broyden mixing:
  rms(total) = 0.13210E-05    rms(broyden)= 0.13200E-05
  rms(prec ) = 0.13919E-05
  weight for this iteration     100.00

 eigenvalues of (default mixing * dielectric matrix)
  average eigenvalue GAMMA=   2.1145
  9.6897  7.2651  4.5226  3.6555  2.9686  2.9686  2.1892  2.1892  1.7117  1.3294
  1.2657  0.9498  0.9498  0.9773  0.8488  0.8488  0.7133  0.6871  0.6343  0.5842
  0.5627  0.5627  0.5598

 Free energy of the ion-electron system (eV)
  ---------------------------------------------------
  -Hartree energ DENC   =        -1.26468492
  -V(xc)+E(xc)   XCENC  =         0.02292662
  PAW double counting   =         0.06755863       -0.06691678
  entropy T*S    EENTRO =         0.00000000
  eigenvalues    EBANDS =        -0.50002933
  ---------------------------------------------------
  free energy    TOTEN  =        -1.74114579 eV

  energy without entropy =       -1.74114579


----------------------------------------- Iteration    3(  26)  ---------------------------------------


   POT+DIJ:  cpu time    0.0840: real time    0.0842
    HAMIL1:  cpu time    1.5888: real time    1.5909
    LRDIAG:  cpu time    0.2660: real time    0.2660
    LRDIIS:  cpu time    5.7921: real time    5.7944
    LRDIAG:  cpu time    0.2590: real time    0.2591
    MIXING:  cpu time    0.0020: real time    0.0022
    --------------------------------------------
      LOOP:  cpu time    8.6447: real time    8.6519

 Broyden mixing:
  rms(total) = 0.85432E-06    rms(broyden)= 0.85360E-06
  rms(prec ) = 0.90904E-06
  weight for this iteration     100.00

 eigenvalues of (default mixing * dielectric matrix)
  average eigenvalue GAMMA=   2.0843
  9.7700  7.2486  4.6216  3.5650  3.0567  3.0567  2.3470  2.1361  1.8690  1.2857
  1.2857  0.9495  0.9495  0.9773  0.9773  0.8791  0.8149  0.7140  0.7003  0.5624
  0.5624  0.5807  0.5902  0.5237

 Free energy of the ion-electron system (eV)
  ---------------------------------------------------
  -Hartree energ DENC   =        -1.26468397
  -V(xc)+E(xc)   XCENC  =         0.02292635
  PAW double counting   =         0.06755895       -0.06691710
  entropy T*S    EENTRO =         0.00000000
  eigenvalues    EBANDS =        -0.49995210
  ---------------------------------------------------
  free energy    TOTEN  =        -1.74106787 eV

  energy without entropy =       -1.74106787


------------------------ aborting loop because EDIFF is reached ----------------------------------------


 change of polarisation eV/A/(eV/A) component  3 :     0.000     0.000     3.411
 dielectric tensor                  component  3 :     0.000     0.000     2.293


--------------------------------------------------------------------------------------------------------


    FORLOC:  cpu time    0.0040: real time    0.0037
    FORNL :  cpu time    2.0277: real time    2.0276
    STRESS:  cpu time    6.0301: real time    6.0315
    FORCOR:  cpu time    0.0320: real time    0.0321
    OFIELD:  cpu time    0.0000: real time    0.0003

  Hirshfeld charges:
            ion         q(e)     
   ------------------------------
      1     Mo          0.310
      2     Mo          0.308
      3     Mo          0.308
      4     Mo          0.308
      5     Mo          0.310
      6     Se         -0.154
      7     Se         -0.155
      8     Se         -0.154
      9     Se         -0.154
     10     Se         -0.154
     11     Se         -0.154
     12     Se         -0.154
     13     Se         -0.154
     14     Se         -0.155
     15     Se         -0.154

  Tkatchenko/Scheffler method for vdW energy calculation
  ---------------------------------------------------------------------------------------------

  Parameters of vdW forcefield:
            C6ts              R0ts           ALPHAts        RELVOL
            (au)              (au)            (au)                
   ---------------------------------------------------------------
   Mo       1086.648          4.138         90.875          1.028
   Mo       1094.561          4.143         91.205          1.031
   Mo       1094.568          4.143         91.205          1.032
   Mo       1094.561          4.143         91.205          1.031
   Mo       1086.648          4.138         90.875          1.028
   Se        215.629          4.062         25.333          1.013
   Se        211.148          4.048         25.068          1.003
   Se        215.639          4.062         25.333          1.013
   Se        215.626          4.062         25.333          1.013
   Se        215.638          4.062         25.333          1.013
   Se        215.638          4.062         25.333          1.013
   Se        215.626          4.062         25.333          1.013
   Se        215.639          4.062         25.333          1.013
   Se        211.149          4.048         25.068          1.003
   Se        215.629          4.062         25.333          1.013
  Edisp (eV):   -4.59184
    FORVDW:  cpu time    0.5559: real time    0.5554
    FORLOC:  cpu time    0.0040: real time    0.0036
    FORNL :  cpu time    2.0407: real time    2.0401
    STRESS:  cpu time    6.0431: real time    6.0453
    FORCOR:  cpu time    0.0340: real time    0.0339
    OFIELD:  cpu time    0.0000: real time    0.0003

  Hirshfeld charges:
            ion         q(e)     
   ------------------------------
      1     Mo          0.310
      2     Mo          0.308
      3     Mo          0.308
      4     Mo          0.308
      5     Mo          0.310
      6     Se         -0.154
      7     Se         -0.155
      8     Se         -0.154
      9     Se         -0.154
     10     Se         -0.154
     11     Se         -0.154
     12     Se         -0.154
     13     Se         -0.154
     14     Se         -0.155
     15     Se         -0.154

  Tkatchenko/Scheffler method for vdW energy calculation
  ---------------------------------------------------------------------------------------------

  Parameters of vdW forcefield:
            C6ts              R0ts           ALPHAts        RELVOL
            (au)              (au)            (au)                
   ---------------------------------------------------------------
   Mo       1086.648          4.138         90.875          1.028
   Mo       1094.561          4.143         91.205          1.031
   Mo       1094.568          4.143         91.205          1.032
   Mo       1094.561          4.143         91.205          1.031
   Mo       1086.648          4.138         90.875          1.028
   Se        215.629          4.062         25.333          1.013
   Se        211.149          4.048         25.068          1.003
   Se        215.639          4.062         25.333          1.013
   Se        215.626          4.062         25.333          1.013
   Se        215.638          4.062         25.333          1.013
   Se        215.638          4.062         25.333          1.013
   Se        215.626          4.062         25.333          1.013
   Se        215.639          4.062         25.333          1.013
   Se        211.148          4.048         25.068          1.003
   Se        215.629          4.062         25.333          1.013
  Edisp (eV):   -4.59184
    FORVDW:  cpu time    0.5559: real time    0.5557
    FORNLD:  cpu time    4.7373: real time    4.7387

 PIEZOELECTRIC TENSOR FIELD DIRECTION 3  (e Angst)
 -----------------------------------------------------------------------------
     0.00087 -0.00000 -0.00000           (  0.00000  0.00000 -0.00000)
     0.00000  0.00087  0.00000           (  0.00000  0.00000  0.00000)
    -0.00000  0.00000  0.00087           ( -0.00000  0.00000  0.00000)

 PIEZOELECTRIC TENSOR FIELD DIRECTION 3  (C/m^2)
 -----------------------------------------------------------------------------
     0.00003 -0.00000 -0.00000
     0.00000  0.00003  0.00000
    -0.00000  0.00000  0.00003


      POSITION         DIRECTION 3           BORN EFFECTIVE CHARGE    (rigid.aug.   ionic)
 -----------------------------------------------------------------------------------------
     -0.00000      0.95833     12.08000    -0.00000  0.00000-62.77098 (  0.16872 14.00000)
      1.65987      1.91666     18.54000     0.00000 -0.00000-15.68729 (  0.16858 14.00000)
     -0.00000      0.95833     25.00000    -0.00000  0.00000  0.21149 (  0.16858 14.00000)
      1.65987      1.91666     31.46000     0.00000  0.00000-15.68701 (  0.16858 14.00000)
     -0.00000      0.95833     37.92000     0.00000 -0.00000-62.77155 (  0.16872 14.00000)
      1.65987      1.91666     13.74903     0.00000  0.00000 -1.52009 (  1.12429  6.00000)
      1.65987      1.91666     10.41097    -0.00000  0.00000  0.07792 (  1.12264  6.00000)
     -0.00000      0.95833     20.20903     0.00000 -0.00000 -0.17478 (  1.12432  6.00000)
     -0.00000      0.95833     16.87097    -0.00000 -0.00000 -0.70523 (  1.12431  6.00000)
      1.65987      1.91666     26.66903     0.00000 -0.00000  0.78875 (  1.12432  6.00000)
      1.65987      1.91666     23.33097     0.00000  0.00000  0.78876 (  1.12432  6.00000)
     -0.00000      0.95833     33.12903     0.00000  0.00000 -0.70522 (  1.12431  6.00000)
     -0.00000      0.95833     29.79097     0.00000 -0.00000 -0.17478 (  1.12432  6.00000)
      1.65987      1.91666     39.58903     0.00000  0.00000  0.07793 (  1.12264  6.00000)
      1.65987      1.91666     36.25097    -0.00000 -0.00000 -1.52009 (  1.12429  6.00000)
 -----------------------------------------------------------------------------------------
    total drift (improves with k-points):   0.00000 -0.00000*********




--------------------------------------------------------------------------------------------------------


  LATTYP: Found a hexagonal cell.
 ALAT       =     3.3197487879
 C/A-ratio  =    15.0613806029
  
  Lattice vectors:
  
 A1 = (   3.3197487879,   0.0000000000,   0.0000000000)
 A2 = (  -1.6598743939,   2.8749867845,   0.0000000000)
 A3 = (   0.0000000000,   0.0000000000,  50.0000000000)


Analysis of symmetry for initial positions (statically):
=====================================================================
 Subroutine PRICEL returns:
 Original cell was already a primitive cell.
 

 Routine SETGRP: Setting up the symmetry group for a 
 hexagonal supercell.


 Subroutine GETGRP returns: Found 12 space group operations
 (whereof  4 operations were pure point group operations)
 out of a pool of 24 trial point group operations.


The static configuration has the point symmetry C_2v.
 The point group associated with its full space group is D_3h.


Analysis of symmetry for dynamics (positions and initial velocities):
=====================================================================
 Subroutine PRICEL returns:
 Original cell was already a primitive cell.
 

 Routine SETGRP: Setting up the symmetry group for a 
 hexagonal supercell.


 Subroutine GETGRP returns: Found 12 space group operations
 (whereof  4 operations were pure point group operations)
 out of a pool of 24 trial point group operations.


The dynamic configuration has the point symmetry C_2v.
 The point group associated with its full space group is D_3h.


 Subroutine INISYM returns: Found 12 space group operations
 (whereof  4 operations are pure point group operations),
 and found     1 'primitive' translations



 MACROSCOPIC STATIC DIELECTRIC TENSOR (including local field effects in DFT)
 ------------------------------------------------------
          11.279721     0.000000     0.000000
           0.000000    11.279721    -0.000000
           0.000000     0.000000     2.293265
 ------------------------------------------------------



--------------------------------------------------------------------------------------------------------


  LATTYP: Found a hexagonal cell.
 ALAT       =     3.3197487879
 C/A-ratio  =    15.0613806029
  
  Lattice vectors:
  
 A1 = (   3.3197487879,   0.0000000000,   0.0000000000)
 A2 = (  -1.6598743939,   2.8749867845,   0.0000000000)
 A3 = (   0.0000000000,   0.0000000000,  50.0000000000)


Analysis of symmetry for initial positions (statically):
=====================================================================
 Subroutine PRICEL returns:
 Original cell was already a primitive cell.
 

 Routine SETGRP: Setting up the symmetry group for a 
 hexagonal supercell.


 Subroutine GETGRP returns: Found 12 space group operations
 (whereof  4 operations were pure point group operations)
 out of a pool of 24 trial point group operations.


The static configuration has the point symmetry C_2v.
 The point group associated with its full space group is D_3h.


Analysis of symmetry for dynamics (positions and initial velocities):
=====================================================================
 Subroutine PRICEL returns:
 Original cell was already a primitive cell.
 

 Routine SETGRP: Setting up the symmetry group for a 
 hexagonal supercell.


 Subroutine GETGRP returns: Found 12 space group operations
 (whereof  4 operations were pure point group operations)
 out of a pool of 24 trial point group operations.


The dynamic configuration has the point symmetry C_2v.
 The point group associated with its full space group is D_3h.


 Subroutine INISYM returns: Found 12 space group operations
 (whereof  4 operations are pure point group operations),
 and found     1 'primitive' translations



--------------------------------------------------------------------------------------------------------




 MACROSCOPIC STATIC DIELECTRIC TENSOR (including local field effects in DFT)
 ------------------------------------------------------
          11.279721     0.000000     0.000000
           0.000000    11.279721    -0.000000
           0.000000     0.000000     2.293265
 ------------------------------------------------------


 PIEZOELECTRIC TENSOR  for field in x, y, z        (e  Angst)
          XX          YY          ZZ          XY          YZ          ZX
  --------------------------------------------------------------------------------
  x    -0.01206     0.00977     0.00032    -1.61427     0.00000     0.00000
  y    -1.62695     1.63311    -0.00003     0.00000     0.00000     0.00000
  z     0.00087     0.00087     0.00087     0.00000     0.00000    -0.00000

 PIEZOELECTRIC TENSOR  for field in x, y, z        (C/m^2)
          XX          YY          ZZ          XY          YZ          ZX
  --------------------------------------------------------------------------------
  x     0.00000     0.00000    -0.00000    -0.05446     0.00000     0.00000
  y    -0.05446     0.05446     0.00000     0.00000     0.00000     0.00000
  z     0.00000     0.00000     0.00000     0.00000     0.00000     0.00000
 
 BORN EFFECTIVE CHARGES (in e, cummulative output)
 -------------------------------------------------
 ion    1
    1    -1.75363    -0.00065     0.00001
    2     0.00000    -1.75401    -0.00003
    3    -0.00000     0.00000   -62.77098
 ion    2
    1    -1.75305     0.00068    -0.00000
    2    -0.00000    -1.75273    -0.00000
    3     0.00000    -0.00000   -15.68729
 ion    3
    1    -1.76300    -0.00068     0.00000
    2    -0.00000    -1.76345     0.00000
    3    -0.00000     0.00000     0.21149
 ion    4
    1    -1.75305     0.00068     0.00000
    2    -0.00000    -1.75273     0.00000
    3     0.00000     0.00000   -15.68701
 ion    5
    1    -1.75363    -0.00065    -0.00001
    2     0.00000    -1.75401     0.00003
    3     0.00000    -0.00000   -62.77155
 ion    6
    1     0.86448    -0.00031    -0.00026
    2    -0.00000     0.86479     0.00068
    3     0.00000     0.00000    -1.52009
 ion    7
    1     0.88025    -0.00034     0.00016
    2     0.00000     0.88048    -0.00042
    3    -0.00000     0.00000     0.07792
 ion    8
    1     0.86664     0.00032    -0.00026
    2    -0.00000     0.86631     0.00066
    3     0.00000    -0.00000    -0.17478
 ion    9
    1     0.86727     0.00032     0.00026
    2     0.00000     0.86695    -0.00065
    3    -0.00000    -0.00000    -0.70523
 ion   10
    1     0.86656    -0.00032    -0.00026
    2     0.00000     0.86689     0.00066
    3     0.00000    -0.00000     0.78875
 ion   11
    1     0.86656    -0.00032     0.00026
    2     0.00000     0.86689    -0.00066
    3     0.00000     0.00000     0.78876
 ion   12
    1     0.86727     0.00032    -0.00026
    2     0.00000     0.86695     0.00065
    3     0.00000     0.00000    -0.70522
 ion   13
    1     0.86664     0.00032     0.00026
    2    -0.00000     0.86631    -0.00066
    3     0.00000    -0.00000    -0.17478
 ion   14
    1     0.88025    -0.00034    -0.00016
    2     0.00000     0.88048     0.00042
    3     0.00000     0.00000     0.07793
 ion   15
    1     0.86448    -0.00031     0.00026
    2    -0.00000     0.86479    -0.00068
    3    -0.00000    -0.00000    -1.52009


--------------------------------------------------------------------------------------------------------


 writing wavefunctions
     LOOP+:  cpu time 2915.8377: real time 2921.3670
    4ORBIT:  cpu time    0.0000: real time    0.0000
 BZINTS: Fermi energy:  2.352086;130.000000 electrons
         Band energy:***********;  BLOECHL correction:  0.000000

 total amount of memory used by VASP on root node   227410. kBytes
========================================================================

   base      :      30000. kBytes
   nonl-proj :     172956. kBytes
   fftplans  :       2116. kBytes
   grid      :       8000. kBytes
   one-center:       1210. kBytes
   wavefun   :      13128. kBytes
 
  
  
 General timing and accounting informations for this job:
 ========================================================
  
                  Total CPU time used (sec):     2919.276
                            User time (sec):     2862.974
                          System time (sec):       56.302
                         Elapsed time (sec):     2926.204
  
                   Maximum memory used (kb):     1105484.
                   Average memory used (kb):           0.
  
                          Minor page faults:     13382655
                          Major page faults:            9
                 Voluntary context switches:         7054
