unknown system                          
           1
     3.319749    0.000000    0.000000
    -1.659874    2.874987    0.000000
     0.000000    0.000000   50.000000
   Mo   Se
   5  10
Direct configuration=     1
   0.16666667  0.33333333  0.24160000
   0.83333333  0.66666667  0.37080000
   0.16666667  0.33333333  0.50000000
   0.83333333  0.66666667  0.62920000
   0.16666667  0.33333333  0.75840000
   0.83333333  0.66666667  0.27498059
   0.83333333  0.66666667  0.20821941
   0.16666667  0.33333333  0.40418059
   0.16666667  0.33333333  0.33741941
   0.83333333  0.66666667  0.53338059
   0.83333333  0.66666667  0.46661941
   0.16666667  0.33333333  0.66258059
   0.16666667  0.33333333  0.59581941
   0.83333333  0.66666667  0.79178059
   0.83333333  0.66666667  0.72501941
