   9   9   0   0
  0.4883542E+02  0.3185946E-09  0.3185946E-09  0.5000000E-08  0.5000000E-15
  1.000000000000000E-004
  CAR 
 unknown system                          
     11.42190324    -79.19905429  301     -0.28330377      1.00000000
    -79.199  0.0000E+00  0.0000E+00
    -78.897  0.0000E+00  0.0000E+00
    -78.595  0.0000E+00  0.0000E+00
    -78.293  0.0000E+00  0.0000E+00
    -77.991  0.0000E+00  0.0000E+00
    -77.689  0.0000E+00  0.0000E+00
    -77.387  0.0000E+00  0.0000E+00
    -77.085  0.0000E+00  0.0000E+00
    -76.782  0.0000E+00  0.0000E+00
    -76.480  0.0000E+00  0.0000E+00
    -76.178  0.0000E+00  0.0000E+00
    -75.876  0.0000E+00  0.0000E+00
    -75.574  0.0000E+00  0.0000E+00
    -75.272  0.0000E+00  0.0000E+00
    -74.970  0.0000E+00  0.6000E+01
    -74.668  0.0000E+00  0.6000E+01
    -74.366  0.0000E+00  0.6000E+01
    -74.064  0.0000E+00  0.6000E+01
    -73.762  0.0000E+00  0.6000E+01
    -73.460  0.0000E+00  0.6000E+01
    -73.158  0.0000E+00  0.6000E+01
    -72.856  0.0000E+00  0.6000E+01
    -72.554  0.0000E+00  0.6000E+01
    -72.251  0.0000E+00  0.6000E+01
    -71.949  0.0000E+00  0.6000E+01
    -71.647  0.0000E+00  0.6000E+01
    -71.345  0.0000E+00  0.6000E+01
    -71.043  0.0000E+00  0.6000E+01
    -70.741  0.0000E+00  0.6000E+01
    -70.439  0.0000E+00  0.6000E+01
    -70.137  0.0000E+00  0.6000E+01
    -69.835  0.0000E+00  0.6000E+01
    -69.533  0.0000E+00  0.6000E+01
    -69.231  0.0000E+00  0.6000E+01
    -68.929  0.0000E+00  0.6000E+01
    -68.627  0.0000E+00  0.6000E+01
    -68.325  0.0000E+00  0.6000E+01
    -68.022  0.0000E+00  0.6000E+01
    -67.720  0.0000E+00  0.6000E+01
    -67.418  0.0000E+00  0.6000E+01
    -67.116  0.0000E+00  0.6000E+01
    -66.814  0.0000E+00  0.6000E+01
    -66.512  0.0000E+00  0.6000E+01
    -66.210  0.0000E+00  0.6000E+01
    -65.908  0.0000E+00  0.6000E+01
    -65.606  0.0000E+00  0.6000E+01
    -65.304  0.0000E+00  0.6000E+01
    -65.002  0.0000E+00  0.6000E+01
    -64.700  0.0000E+00  0.6000E+01
    -64.398  0.0000E+00  0.6000E+01
    -64.096  0.0000E+00  0.6000E+01
    -63.793  0.0000E+00  0.6000E+01
    -63.491  0.0000E+00  0.6000E+01
    -63.189  0.0000E+00  0.6000E+01
    -62.887  0.0000E+00  0.6000E+01
    -62.585  0.0000E+00  0.6000E+01
    -62.283  0.0000E+00  0.6000E+01
    -61.981  0.0000E+00  0.6000E+01
    -61.679  0.0000E+00  0.6000E+01
    -61.377  0.0000E+00  0.6000E+01
    -61.075  0.0000E+00  0.6000E+01
    -60.773  0.0000E+00  0.6000E+01
    -60.471  0.0000E+00  0.6000E+01
    -60.169  0.0000E+00  0.6000E+01
    -59.867  0.0000E+00  0.6000E+01
    -59.565  0.0000E+00  0.6000E+01
    -59.262  0.0000E+00  0.6000E+01
    -58.960  0.0000E+00  0.6000E+01
    -58.658  0.0000E+00  0.6000E+01
    -58.356  0.0000E+00  0.6000E+01
    -58.054  0.0000E+00  0.6000E+01
    -57.752  0.0000E+00  0.6000E+01
    -57.450  0.0000E+00  0.6000E+01
    -57.148  0.0000E+00  0.6000E+01
    -56.846  0.0000E+00  0.6000E+01
    -56.544  0.0000E+00  0.6000E+01
    -56.242  0.0000E+00  0.6000E+01
    -55.940  0.0000E+00  0.6000E+01
    -55.638  0.0000E+00  0.6000E+01
    -55.336  0.0000E+00  0.6000E+01
    -55.033  0.0000E+00  0.6000E+01
    -54.731  0.0000E+00  0.6000E+01
    -54.429  0.0000E+00  0.6000E+01
    -54.127  0.0000E+00  0.6000E+01
    -53.825  0.0000E+00  0.6000E+01
    -53.523  0.0000E+00  0.6000E+01
    -53.221  0.0000E+00  0.6000E+01
    -52.919  0.0000E+00  0.6000E+01
    -52.617  0.0000E+00  0.6000E+01
    -52.315  0.0000E+00  0.6000E+01
    -52.013  0.0000E+00  0.6000E+01
    -51.711  0.0000E+00  0.6000E+01
    -51.409  0.0000E+00  0.6000E+01
    -51.107  0.0000E+00  0.6000E+01
    -50.804  0.0000E+00  0.6000E+01
    -50.502  0.0000E+00  0.6000E+01
    -50.200  0.0000E+00  0.6000E+01
    -49.898  0.0000E+00  0.6000E+01
    -49.596  0.0000E+00  0.6000E+01
    -49.294  0.0000E+00  0.6000E+01
    -48.992  0.0000E+00  0.6000E+01
    -48.690  0.0000E+00  0.6000E+01
    -48.388  0.0000E+00  0.6000E+01
    -48.086  0.0000E+00  0.6000E+01
    -47.784  0.0000E+00  0.6000E+01
    -47.482  0.0000E+00  0.6000E+01
    -47.180  0.0000E+00  0.6000E+01
    -46.878  0.0000E+00  0.6000E+01
    -46.576  0.0000E+00  0.6000E+01
    -46.273  0.0000E+00  0.6000E+01
    -45.971  0.0000E+00  0.6000E+01
    -45.669  0.0000E+00  0.6000E+01
    -45.367  0.0000E+00  0.6000E+01
    -45.065  0.0000E+00  0.6000E+01
    -44.763  0.0000E+00  0.6000E+01
    -44.461  0.0000E+00  0.6000E+01
    -44.159  0.0000E+00  0.6000E+01
    -43.857  0.0000E+00  0.6000E+01
    -43.555  0.0000E+00  0.6000E+01
    -43.253  0.0000E+00  0.6000E+01
    -42.951  0.0000E+00  0.6000E+01
    -42.649  0.0000E+00  0.6000E+01
    -42.347  0.0000E+00  0.6000E+01
    -42.044  0.0000E+00  0.6000E+01
    -41.742  0.0000E+00  0.6000E+01
    -41.440  0.0000E+00  0.6000E+01
    -41.138  0.0000E+00  0.6000E+01
    -40.836  0.0000E+00  0.6000E+01
    -40.534  0.0000E+00  0.6000E+01
    -40.232  0.0000E+00  0.6000E+01
    -39.930  0.0000E+00  0.6000E+01
    -39.628  0.0000E+00  0.6000E+01
    -39.326  0.2427E+02  0.1069E+02
    -39.024  0.0000E+00  0.2400E+02
    -38.722  0.0000E+00  0.2400E+02
    -38.420  0.0000E+00  0.2400E+02
    -38.118  0.0000E+00  0.2400E+02
    -37.815  0.0000E+00  0.2400E+02
    -37.513  0.0000E+00  0.2400E+02
    -37.211  0.0000E+00  0.2400E+02
    -36.909  0.0000E+00  0.2400E+02
    -36.607  0.0000E+00  0.2400E+02
    -36.305  0.0000E+00  0.2400E+02
    -36.003  0.0000E+00  0.2400E+02
    -35.701  0.0000E+00  0.2400E+02
    -35.399  0.0000E+00  0.2400E+02
    -35.097  0.0000E+00  0.2400E+02
    -34.795  0.0000E+00  0.2400E+02
    -34.493  0.0000E+00  0.2400E+02
    -34.191  0.0000E+00  0.2400E+02
    -33.889  0.0000E+00  0.2400E+02
    -33.587  0.0000E+00  0.2400E+02
    -33.284  0.0000E+00  0.2400E+02
    -32.982  0.0000E+00  0.2400E+02
    -32.680  0.0000E+00  0.2400E+02
    -32.378  0.0000E+00  0.2400E+02
    -32.076  0.0000E+00  0.2400E+02
    -31.774  0.0000E+00  0.2400E+02
    -31.472  0.0000E+00  0.2400E+02
    -31.170  0.0000E+00  0.2400E+02
    -30.868  0.0000E+00  0.2400E+02
    -30.566  0.0000E+00  0.2400E+02
    -30.264  0.0000E+00  0.2400E+02
    -29.962  0.0000E+00  0.2400E+02
    -29.660  0.0000E+00  0.2400E+02
    -29.358  0.0000E+00  0.2400E+02
    -29.055  0.0000E+00  0.2400E+02
    -28.753  0.0000E+00  0.2400E+02
    -28.451  0.0000E+00  0.2400E+02
    -28.149  0.0000E+00  0.2400E+02
    -27.847  0.0000E+00  0.2400E+02
    -27.545  0.0000E+00  0.2400E+02
    -27.243  0.0000E+00  0.2400E+02
    -26.941  0.0000E+00  0.2400E+02
    -26.639  0.0000E+00  0.2400E+02
    -26.337  0.0000E+00  0.2400E+02
    -26.035  0.0000E+00  0.2400E+02
    -25.733  0.0000E+00  0.2400E+02
    -25.431  0.0000E+00  0.2400E+02
    -25.129  0.0000E+00  0.2400E+02
    -24.826  0.0000E+00  0.2400E+02
    -24.524  0.0000E+00  0.2400E+02
    -24.222  0.0000E+00  0.2400E+02
    -23.920  0.0000E+00  0.2400E+02
    -23.618  0.0000E+00  0.2400E+02
    -23.316  0.0000E+00  0.2400E+02
    -23.014  0.0000E+00  0.2400E+02
    -22.712  0.0000E+00  0.2400E+02
    -22.410  0.0000E+00  0.2400E+02
    -22.108  0.0000E+00  0.2400E+02
    -21.806  0.0000E+00  0.2400E+02
    -21.504  0.0000E+00  0.2400E+02
    -21.202  0.0000E+00  0.2400E+02
    -20.900  0.0000E+00  0.2400E+02
    -20.598  0.0000E+00  0.2400E+02
    -20.295  0.0000E+00  0.2400E+02
    -19.993  0.0000E+00  0.2400E+02
    -19.691  0.0000E+00  0.2400E+02
    -19.389  0.0000E+00  0.2400E+02
    -19.087  0.0000E+00  0.2400E+02
    -18.785  0.0000E+00  0.2400E+02
    -18.483  0.0000E+00  0.2400E+02
    -18.181  0.0000E+00  0.2400E+02
    -17.879  0.0000E+00  0.2400E+02
    -17.577  0.0000E+00  0.2400E+02
    -17.275  0.0000E+00  0.2400E+02
    -16.973  0.0000E+00  0.2400E+02
    -16.671  0.0000E+00  0.2400E+02
    -16.369  0.0000E+00  0.2400E+02
    -16.066  0.0000E+00  0.2400E+02
    -15.764  0.5160E+00  0.2404E+02
    -15.462  0.1413E+01  0.2441E+02
    -15.160  0.1543E+01  0.2486E+02
    -14.858  0.1709E+01  0.2535E+02
    -14.556  0.1945E+01  0.2590E+02
    -14.254  0.3519E+01  0.2660E+02
    -13.952  0.7339E+01  0.2807E+02
    -13.650  0.1184E+02  0.3092E+02
    -13.348  0.1143E+02  0.3505E+02
    -13.046  0.0000E+00  0.3600E+02
    -12.744  0.0000E+00  0.3600E+02
    -12.442  0.0000E+00  0.3600E+02
    -12.140  0.0000E+00  0.3600E+02
    -11.837  0.0000E+00  0.3600E+02
    -11.535  0.0000E+00  0.3600E+02
    -11.233  0.0000E+00  0.3600E+02
    -10.931  0.0000E+00  0.3600E+02
    -10.629  0.0000E+00  0.3600E+02
    -10.327  0.0000E+00  0.3600E+02
    -10.025  0.0000E+00  0.3600E+02
     -9.723  0.0000E+00  0.3600E+02
     -9.421  0.0000E+00  0.3600E+02
     -9.119  0.0000E+00  0.3600E+02
     -8.817  0.0000E+00  0.3600E+02
     -8.515  0.0000E+00  0.3600E+02
     -8.213  0.0000E+00  0.3600E+02
     -7.911  0.0000E+00  0.3600E+02
     -7.608  0.3987E+00  0.3605E+02
     -7.306  0.3667E+01  0.3667E+02
     -7.004  0.4752E+01  0.3791E+02
     -6.702  0.9970E+01  0.4014E+02
     -6.400  0.5260E+01  0.4233E+02
     -6.098  0.4229E+01  0.4415E+02
     -5.796  0.4320E+01  0.4533E+02
     -5.494  0.8345E+01  0.4715E+02
     -5.192  0.5423E+01  0.4996E+02
     -4.890  0.3324E+01  0.5198E+02
     -4.588  0.5640E+01  0.5353E+02
     -4.286  0.7677E+01  0.5686E+02
     -3.984  0.5261E+01  0.5899E+02
     -3.682  0.6804E+01  0.6051E+02
     -3.380  0.5046E+01  0.6201E+02
     -3.077  0.1156E+02  0.6568E+02
     -2.775  0.7772E+01  0.6835E+02
     -2.473  0.8252E+01  0.7074E+02
     -2.171  0.2582E+01  0.7174E+02
     -1.869  0.1273E+02  0.7394E+02
     -1.567  0.5051E+01  0.7609E+02
     -1.265  0.2348E+01  0.7734E+02
     -0.963  0.7217E+00  0.7781E+02
     -0.661  0.2517E+00  0.7796E+02
     -0.359  0.0000E+00  0.7800E+02
     -0.057  0.0000E+00  0.7800E+02
      0.245  0.0000E+00  0.7800E+02
      0.547  0.0000E+00  0.7800E+02
      0.849  0.1898E+01  0.7819E+02
      1.152  0.5323E+01  0.7936E+02
      1.454  0.8222E+01  0.8155E+02
      1.756  0.1602E+02  0.8569E+02
      2.058  0.1191E+02  0.8932E+02
      2.360  0.7290E+01  0.9232E+02
      2.662  0.6432E+01  0.9424E+02
      2.964  0.4419E+01  0.9628E+02
      3.266  0.4544E+01  0.9753E+02
      3.568  0.5793E+01  0.9940E+02
      3.870  0.3036E+01  0.1008E+03
      4.172  0.2963E+01  0.1017E+03
      4.474  0.1970E+01  0.1026E+03
      4.776  0.2698E+01  0.1033E+03
      5.078  0.3422E+01  0.1042E+03
      5.381  0.4266E+01  0.1054E+03
      5.683  0.5167E+01  0.1069E+03
      5.985  0.3891E+01  0.1081E+03
      6.287  0.9381E+01  0.1093E+03
      6.589  0.2910E+01  0.1106E+03
      6.891  0.2074E+01  0.1115E+03
      7.193  0.6193E+00  0.1119E+03
      7.495  0.0000E+00  0.1120E+03
      7.797  0.0000E+00  0.1120E+03
      8.099  0.0000E+00  0.1120E+03
      8.401  0.0000E+00  0.1120E+03
      8.703  0.0000E+00  0.1120E+03
      9.005  0.0000E+00  0.1120E+03
      9.307  0.0000E+00  0.1120E+03
      9.609  0.0000E+00  0.1120E+03
      9.912  0.0000E+00  0.1120E+03
     10.214  0.0000E+00  0.1120E+03
     10.516  0.0000E+00  0.1120E+03
     10.818  0.0000E+00  0.1120E+03
     11.120  0.0000E+00  0.1120E+03
     11.422  0.0000E+00  0.1120E+03
