       N       E                     dE             d eps       ncg     rms          rms(c)
DAV:   1     0.532703472556E+03    0.53270E+03   -0.33942E+04  5292   0.787E+02
DAV:   2    -0.554670663910E+02   -0.58817E+03   -0.58511E+03  6216   0.253E+02
DAV:   3    -0.848150649103E+02   -0.29348E+02   -0.29298E+02  6412   0.659E+01
DAV:   4    -0.853129107396E+02   -0.49785E+00   -0.49759E+00  6188   0.761E+00
DAV:   5    -0.853175307438E+02   -0.46200E-02   -0.46198E-02  6300   0.624E-01    0.133E+02
DAV:   6    -0.778088857415E+02    0.75086E+01   -0.51886E+01  4592   0.189E+01    0.128E+02
DAV:   7    -0.784669006736E+02   -0.65801E+00   -0.23897E+01  5432   0.129E+01    0.128E+01
DAV:   8    -0.769811743193E+02    0.14857E+01   -0.91692E+00  5124   0.793E+00    0.502E+00
DAV:   9    -0.769830875971E+02   -0.19133E-02   -0.38344E-01  6048   0.215E+00    0.224E+00
DAV:  10    -0.769841160067E+02   -0.10284E-02   -0.14989E-02  6216   0.436E-01    0.504E-01
DAV:  11    -0.769828994464E+02    0.12166E-02   -0.60019E-03  6048   0.260E-01    0.461E-01
DAV:  12    -0.769828761459E+02    0.23300E-04   -0.62352E-04  6412   0.824E-02    0.170E-01
DAV:  13    -0.769828669814E+02    0.91645E-05   -0.51621E-05  6160   0.291E-02    0.158E-01
DAV:  14    -0.769828860926E+02   -0.19111E-04   -0.89387E-05  5992   0.283E-02    0.448E-02
DAV:  15    -0.769829141388E+02   -0.28046E-04   -0.59741E-06  6524   0.946E-03    0.124E-02
DAV:  16    -0.769829627454E+02   -0.48607E-04   -0.81273E-06  5712   0.751E-03    0.124E-02
DAV:  17    -0.769830335686E+02   -0.70823E-04   -0.12902E-05  5768   0.926E-03    0.283E-02
DAV:  18    -0.769830717672E+02   -0.38199E-04   -0.23976E-06  5824   0.401E-03    0.701E-03
DAV:  19    -0.769830968523E+02   -0.25085E-04   -0.69644E-07  6020   0.203E-03    0.610E-03
DAV:  20    -0.769831108634E+02   -0.14011E-04   -0.38303E-07  5740   0.131E-03    0.140E-03
DAV:  21    -0.769831255785E+02   -0.14715E-04   -0.15469E-07  5544   0.108E-03    0.981E-04
DAV:  22    -0.769831350559E+02   -0.94774E-05   -0.17380E-07  5432   0.973E-04    0.932E-04
DAV:  23    -0.769831384655E+02   -0.34095E-05   -0.40557E-08  5264   0.500E-04    0.136E-03
DAV:  24    -0.769831401228E+02   -0.16573E-05   -0.12472E-08  4648   0.314E-04    0.809E-04
DAV:  25    -0.769831413265E+02   -0.12037E-05   -0.95915E-09  4536   0.270E-04    0.846E-04
DAV:  26    -0.769831418986E+02   -0.57206E-06   -0.15895E-09  4816   0.179E-04    0.637E-04
DAV:  27    -0.769831420417E+02   -0.14307E-06   -0.26148E-10  4704   0.753E-05    0.159E-04
DAV:  28    -0.769831421413E+02   -0.99581E-07   -0.33716E-10  4592   0.718E-05    0.550E-05
DAV:  29    -0.769831421655E+02   -0.24209E-07   -0.35388E-11  4648   0.374E-05    0.332E-05
DAV:  30    -0.769831421709E+02   -0.54788E-08    0.26790E-12  4424   0.144E-05
   1 F= -.79342452E+02 E0= -.79342452E+02  d E =0.000000E+00
 Linear response reoptimize wavefunctions
DAV:   1    -0.769831421737E+02    0.23593E+01    0.98696E-12  4200   0.163E-05
DAV:   2    -0.769831421738E+02   -0.58208E-10    0.54673E-11  4312   0.355E-06
 Linear response G [H, r] |phi>, progress :
  Direction:   1
       N       E                     dE             d eps       ncg     rms
RMM:   1    -0.342269901064E+03   -0.34227E+03    0.13942E+03  9770   0.136E+02
RMM:   2    -0.331946039835E+03    0.10324E+02   -0.12679E+02  8796   0.296E+01
RMM:   3    -0.332872532963E+03   -0.92649E+00   -0.50373E+00  9098   0.635E+00
RMM:   4    -0.332938659943E+03   -0.66127E-01   -0.30385E-01 10107   0.129E+00
RMM:   5    -0.332938509577E+03    0.15037E-03   -0.19560E-02  9615   0.331E-01
RMM:   6    -0.332938614288E+03   -0.10471E-03   -0.18708E-03 10427   0.852E-02
RMM:   7    -0.332938602587E+03    0.11701E-04   -0.21547E-04 10317   0.246E-02
RMM:   8    -0.332938597868E+03    0.47190E-05   -0.47184E-05 10898   0.804E-03
RMM:   9    -0.332938596450E+03    0.14173E-05   -0.20389E-05 10932   0.357E-03
RMM:  10    -0.332938596747E+03   -0.29685E-06   -0.22313E-05 10937   0.251E-03
RMM:  11    -0.332938596049E+03    0.69862E-06   -0.15177E-05 10574   0.224E-03
RMM:  12    -0.332938596314E+03   -0.26537E-06   -0.17803E-05 10313   0.219E-03
RMM:  13    -0.332938595278E+03    0.10359E-05   -0.74439E-06 10008   0.218E-03
 Linear response G [H, r] |phi>, progress :
  Direction:   2
       N       E                     dE             d eps       ncg     rms
RMM:   1    -0.346949638070E+03   -0.34695E+03    0.12724E+03  9706   0.136E+02
RMM:   2    -0.344966854591E+03    0.19828E+01   -0.12793E+02  8736   0.293E+01
RMM:   3    -0.345755917763E+03   -0.78906E+00   -0.46268E+00  9080   0.616E+00
RMM:   4    -0.345822884181E+03   -0.66966E-01   -0.28473E-01 10064   0.126E+00
RMM:   5    -0.345823082430E+03   -0.19825E-03   -0.16409E-02  9513   0.314E-01
RMM:   6    -0.345823266012E+03   -0.18358E-03   -0.17577E-03 10315   0.839E-02
RMM:   7    -0.345823232421E+03    0.33591E-04    0.13879E-05 10260   0.246E-02
RMM:   8    -0.345823288604E+03   -0.56182E-04   -0.43705E-04 10817   0.854E-03
RMM:   9    -0.345823236134E+03    0.52470E-04    0.98688E-05 10857   0.410E-03
RMM:  10    -0.345823260775E+03   -0.24641E-04   -0.14693E-04 10897   0.302E-03
RMM:  11    -0.345823230929E+03    0.29845E-04    0.15161E-04 10521   0.274E-03
RMM:  12    -0.345823246862E+03   -0.15933E-04   -0.77125E-06 10205   0.268E-03
RMM:  13    -0.345823246803E+03    0.58635E-07   -0.71214E-06  9858   0.267E-03
 Linear response G [H, r] |phi>, progress :
  Direction:   3
       N       E                     dE             d eps       ncg     rms
RMM:   1    -0.359497296836E+03   -0.35950E+03    0.14216E+03  9534   0.138E+02
RMM:   2    -0.339600027522E+03    0.19897E+02   -0.15750E+02  8439   0.299E+01
RMM:   3    -0.340069815561E+03   -0.46979E+00   -0.85922E+00  9004   0.735E+00
RMM:   4    -0.340137614109E+03   -0.67799E-01   -0.48440E-01  9797   0.147E+00
RMM:   5    -0.340138122518E+03   -0.50841E-03   -0.35504E-02  9400   0.397E-01
RMM:   6    -0.340138544576E+03   -0.42206E-03   -0.29396E-03 10055   0.965E-02
RMM:   7    -0.340138567848E+03   -0.23272E-04   -0.23374E-04  9947   0.286E-02
RMM:   8    -0.340138574552E+03   -0.67042E-05   -0.12377E-05 10595   0.850E-03
RMM:   9    -0.340138576103E+03   -0.15508E-05    0.31640E-06 10579   0.332E-03
RMM:  10    -0.340138576508E+03   -0.40486E-06    0.22494E-06 10570   0.186E-03
RMM:  11    -0.340138576674E+03   -0.16570E-06    0.94199E-07 10264   0.151E-03
RMM:  12    -0.340138576723E+03   -0.49597E-07    0.48895E-07  9973   0.144E-03
RMM:  13    -0.340138576725E+03   -0.16845E-08    0.47740E-07  9820   0.143E-03
 Linear response to external field (no local field effect), progress :
  Direction:   1
       N       E                     dE             d eps       ncg     rms          rms(c)
RMM:   1    -0.543488611647E+01   -0.54349E+01   -0.35063E+01 10308   0.543E+00
RMM:   2    -0.630901858359E+01   -0.87413E+00   -0.37327E-01  8067   0.125E+00
RMM:   3    -0.632127263659E+01   -0.12254E-01   -0.29914E-02  8726   0.283E-01
RMM:   4    -0.632168631773E+01   -0.41368E-03   -0.10949E-03  9458   0.534E-02
RMM:   5    -0.632169718406E+01   -0.10866E-04   -0.50624E-05  9152   0.116E-02
RMM:   6    -0.632169761277E+01   -0.42871E-06   -0.25875E-06  9297   0.257E-03
RMM:   7    -0.632169764082E+01   -0.28055E-07   -0.24181E-07  8720   0.718E-04
RMM:   8    -0.632169764224E+01   -0.14148E-08   -0.16505E-08  8273   0.185E-04
 Linear response to external field (no local field effect), progress :
  Direction:   2
       N       E                     dE             d eps       ncg     rms          rms(c)
RMM:   1    -0.533410106208E+01   -0.53341E+01   -0.33532E+01 10121   0.550E+00
RMM:   2    -0.592051340089E+01   -0.58641E+00   -0.32149E-01  8038   0.123E+00
RMM:   3    -0.593043712181E+01   -0.99237E-02   -0.25010E-02  8642   0.282E-01
RMM:   4    -0.593076669431E+01   -0.32957E-03   -0.98153E-04  9396   0.537E-02
RMM:   5    -0.593077522240E+01   -0.85281E-05   -0.47272E-05  9036   0.121E-02
RMM:   6    -0.593077568783E+01   -0.46544E-06   -0.25059E-06  9176   0.269E-03
RMM:   7    -0.593077571115E+01   -0.23312E-07   -0.20103E-07  8622   0.724E-04
RMM:   8    -0.593077571295E+01   -0.18010E-08   -0.18425E-08  8247   0.188E-04
 Linear response to external field (no local field effect), progress :
  Direction:   3
       N       E                     dE             d eps       ncg     rms          rms(c)
RMM:   1    -0.327549866980E+01   -0.32755E+01   -0.16311E+01 10015   0.499E+00
RMM:   2    -0.351770387072E+01   -0.24221E+00   -0.14944E-01  7814   0.995E-01
RMM:   3    -0.352125811715E+01   -0.35542E-02   -0.13779E-02  8443   0.234E-01
RMM:   4    -0.352140798998E+01   -0.14987E-03   -0.59075E-04  9162   0.456E-02
RMM:   5    -0.352141276788E+01   -0.47779E-05   -0.35423E-05  8707   0.107E-02
RMM:   6    -0.352141298754E+01   -0.21966E-06   -0.18104E-06  8914   0.236E-03
RMM:   7    -0.352141300560E+01   -0.18062E-07   -0.16400E-07  8138   0.632E-04
RMM:   8    -0.352141300532E+01    0.27959E-09   -0.13271E-08  7471   0.170E-04
 Linear response to external field, progress :
  Direction:   1
       N       E                     dE             d eps       ncg     rms          rms(c)
RMM:   1    -0.538244798056E+01   -0.53824E+01   -0.34277E+01 44985   0.542E+00
RMM:   2    -0.611487131581E+01   -0.73242E+00   -0.34716E-01 35498   0.122E+00    0.442E+00
RMM:   3    -0.591815607905E+01    0.19672E+00   -0.24154E-01 34426   0.164E+00    0.243E+00
RMM:   4    -0.603903736503E+01   -0.12088E+00   -0.18421E-01 33073   0.153E+00    0.647E-01
RMM:   5    -0.608725850206E+01   -0.48221E-01   -0.69093E-03 34365   0.317E-01    0.649E-02
RMM:   6    -0.609215665338E+01   -0.48982E-02   -0.49087E-04 37495   0.629E-02    0.304E-02
RMM:   7    -0.609356958462E+01   -0.14129E-02   -0.37372E-05 36210   0.258E-02    0.878E-03
RMM:   8    -0.609416764188E+01   -0.59806E-03   -0.24004E-05 38659   0.612E-03    0.439E-03
RMM:   9    -0.609452030310E+01   -0.35266E-03    0.99153E-06 35533   0.321E-03    0.908E-04
RMM:  10    -0.609457976990E+01   -0.59467E-04   -0.12253E-06 37866   0.920E-04    0.388E-04
RMM:  11    -0.609459821249E+01   -0.18443E-04   -0.72436E-09 34399   0.423E-04    0.119E-04
RMM:  12    -0.609460430616E+01   -0.60937E-05    0.20454E-07 34823   0.168E-04    0.482E-05
RMM:  13    -0.609460409454E+01    0.21162E-06    0.25979E-07 30130   0.645E-05    0.262E-05
RMM:  14    -0.609460431659E+01   -0.22205E-06    0.10538E-07 17322   0.428E-05    0.548E-06
 Linear response to external field, progress :
  Direction:   2
       N       E                     dE             d eps       ncg     rms          rms(c)
RMM:   1    -0.539031341234E+01   -0.53903E+01   -0.34356E+01 24910   0.542E+00
RMM:   2    -0.611490929938E+01   -0.72460E+00   -0.35069E-01 19693   0.123E+00    0.442E+00
RMM:   3    -0.591851396231E+01    0.19640E+00   -0.24093E-01 19073   0.165E+00    0.243E+00
RMM:   4    -0.604019891678E+01   -0.12168E+00   -0.19393E-01 18326   0.153E+00    0.645E-01
RMM:   5    -0.608739857834E+01   -0.47200E-01   -0.70513E-03 18983   0.317E-01    0.671E-02
RMM:   6    -0.609198768794E+01   -0.45891E-02   -0.71567E-04 20830   0.645E-02    0.417E-02
RMM:   7    -0.609261713230E+01   -0.62944E-03    0.26526E-05 21939   0.175E-02    0.230E-02
RMM:   8    -0.609398932335E+01   -0.13722E-02   -0.68327E-06 18246   0.160E-02    0.549E-03
RMM:   9    -0.609442952773E+01   -0.44020E-03    0.53835E-06 19660   0.401E-03    0.177E-03
RMM:  10    -0.609456092302E+01   -0.13140E-03   -0.33389E-06 20051   0.148E-03    0.637E-04
RMM:  11    -0.609457717314E+01   -0.16250E-04    0.25731E-06 20682   0.425E-04    0.197E-04
RMM:  12    -0.609458821396E+01   -0.11041E-04   -0.12822E-06 18096   0.192E-04    0.746E-05
RMM:  13    -0.609459089247E+01   -0.26785E-05   -0.57227E-07 17125   0.102E-04    0.289E-05
RMM:  14    -0.609459040967E+01    0.48279E-06   -0.10954E-07 11277   0.456E-05    0.105E-05
RMM:  15    -0.609459017053E+01    0.23915E-06   -0.85648E-08  8142   0.426E-05    0.414E-06
 Linear response to external field, progress :
  Direction:   3
       N       E                     dE             d eps       ncg     rms          rms(c)
RMM:   1    -0.327549866980E+01   -0.32755E+01   -0.16311E+01 10015   0.499E+00
RMM:   2    -0.351770387072E+01   -0.24221E+00   -0.14944E-01  7814   0.995E-01    0.413E+00
RMM:   3    -0.762689680291E+00    0.27550E+01   -0.34993E+00  7375   0.418E+00    0.211E+00
RMM:   4    -0.637186678464E+00    0.12550E+00    0.53208E-01  7008   0.126E+00    0.837E-01
RMM:   5    -0.564632276083E+00    0.72554E-01    0.20569E-01  7231   0.844E-01    0.344E-01
RMM:   6    -0.557424544212E+00    0.72077E-02    0.17307E-01  7810   0.278E-01    0.229E-01
RMM:   7    -0.518251291918E+00    0.39173E-01    0.37132E-01  7438   0.217E-01    0.165E-01
RMM:   8    -0.529498502085E+00   -0.11247E-01    0.21838E-01  7463   0.137E-01    0.818E-02
RMM:   9    -0.543869509261E+00   -0.14371E-01    0.56037E-02  7173   0.944E-02    0.271E-02
RMM:  10    -0.541891137793E+00    0.19784E-02    0.75816E-02  7543   0.315E-02    0.242E-02
RMM:  11    -0.544634231739E+00   -0.27431E-02    0.50285E-02  6429   0.334E-02    0.828E-03
RMM:  12    -0.548429888562E+00   -0.37957E-02    0.13483E-02  6948   0.163E-02    0.500E-03
RMM:  13    -0.549850126007E+00   -0.14202E-02    0.19144E-03  6703   0.150E-02    0.321E-03
RMM:  14    -0.549666045741E+00    0.18408E-03    0.46563E-03  7022   0.719E-03    0.197E-03
RMM:  15    -0.550152579576E+00   -0.48653E-03   -0.62882E-05  7102   0.554E-03    0.114E-03
RMM:  16    -0.550246291704E+00   -0.93712E-04   -0.10936E-03  6764   0.511E-03    0.526E-04
RMM:  17    -0.550243260434E+00    0.30313E-05   -0.11180E-03  7027   0.183E-03    0.248E-04
RMM:  18    -0.550213611775E+00    0.29649E-04   -0.88266E-04  6885   0.999E-04    0.181E-04
RMM:  19    -0.550169954234E+00    0.43658E-04   -0.48017E-04  6965   0.386E-04    0.863E-05
RMM:  20    -0.550195366194E+00   -0.25412E-04   -0.74824E-04  6196   0.370E-04    0.332E-05
RMM:  21    -0.550190164610E+00    0.52016E-05   -0.69039E-04  7276   0.116E-04    0.313E-05
RMM:  22    -0.550178667821E+00    0.11497E-04   -0.57866E-04  5357   0.621E-05    0.150E-05
RMM:  23    -0.550174964965E+00    0.37029E-05   -0.54266E-04  5142   0.605E-05    0.125E-05
RMM:  24    -0.550178282686E+00   -0.33177E-05   -0.57508E-04  3405   0.384E-05    0.652E-06
