 vasp.5.4.1 24Jun15 (build Apr 13 2016 13:07:19) complex                        
  
 executed on           IFC91_ompi date 2019.09.13  22:40:05
 running on   28 total cores
 distrk:  each k-point on   28 cores,    1 groups
 distr:  one band on NCORES_PER_BAND=   1 cores,   28 groups


--------------------------------------------------------------------------------------------------------


 INCAR:
 POTCAR:    PAW_PBE W_sv_GW 23Mar2010             
 POTCAR:    PAW_PBE S_GW 19Mar2012                

 ----------------------------------------------------------------------------- 
|                                                                             |
|           W    W    AA    RRRRR   N    N  II  N    N   GGGG   !!!           |
|           W    W   A  A   R    R  NN   N  II  NN   N  G    G  !!!           |
|           W    W  A    A  R    R  N N  N  II  N N  N  G       !!!           |
|           W WW W  AAAAAA  RRRRR   N  N N  II  N  N N  G  GGG   !            |
|           WW  WW  A    A  R   R   N   NN  II  N   NN  G    G                |
|           W    W  A    A  R    R  N    N  II  N    N   GGGG   !!!           |
|                                                                             |
|      For optimal performance we recommend to set                            |
|        NCORE= 4 - approx SQRT( number of cores)                             |
|      NCORE specifies how many cores store one orbital (NPAR=cpu/NCORE).     |
|      This setting can  greatly improve the performance of VASP for DFT.     |
|      The default, NPAR=number of cores might be grossly inefficient         |
|      on modern multi-core architectures or massively parallel machines.     |
|      Do your own testing !!!!                                               |
|      Unfortunately you need to use the default for GW and RPA calculations. |
|      (for HF NCORE is supported but not extensively tested yet)             |
|                                                                             |
 ----------------------------------------------------------------------------- 

 POTCAR:    PAW_PBE W_sv_GW 23Mar2010             
   VRHFIN =W: 5p6s5d                                                            
   LEXCH  = PE                                                                  
   EATOM  =  1863.8917 eV,  136.9922 Ry                                         
                                                                                
   TITEL  = PAW_PBE W_sv_GW 23Mar2010                                           
   LULTRA =        F    use ultrasoft PP ?                                      
   IUNSCR =        1    unscreen: 0-lin 1-nonlin 2-no                           
   RPACOR =    1.500    partial core radius                                     
   POMASS =  183.850; ZVAL   =   14.000    mass and valenz                      
   RCORE  =    2.300    outmost cutoff radius                                   
   RWIGS  =    2.600; RWIGS  =    1.376    wigner-seitz radius (au A)           
   ENMAX  =  317.132; ENMIN  =  237.849 eV                                      
   RCLOC  =    1.609    cutoff for local pot                                    
   LCOR   =        T    correct aug charges                                     
   LPAW   =        T    paw PP                                                  
   EAUG   =  807.757                                                            
   DEXC   =    0.000                                                            
   RMAX   =    2.349    core radius for proj-oper                               
   RAUG   =    1.300    factor for augmentation sphere                          
   RDEP   =    2.382    radius for radial grids                                 
   RDEPT  =    1.832    core radius for aug-charge                              
                                                                                
   Atomic configuration                                                         
   14 entries                                                                   
     n  l   j            E        occ.                                          
     1  0  0.50    -69464.1497   2.0000                                         
     2  0  0.50    -11984.7400   2.0000                                         
     2  1  1.50    -10478.3405   6.0000                                         
     3  0  0.50     -2757.5605   2.0000                                         
     3  1  1.50     -2311.6706   6.0000                                         
     3  2  2.50     -1799.5973  10.0000                                         
     4  0  0.50      -566.1609   2.0000                                         
     4  1  1.50      -419.9482   6.0000                                         
     4  2  2.50      -234.8191  10.0000                                         
     4  3  3.50       -29.7363  14.0000                                         
     5  0  0.50       -75.5905   2.0000                                         
     5  1  1.50       -39.9756   6.0000                                         
     5  2  2.50        -2.4479   6.0000                                         
     5  3  2.50        -1.3606   0.0000                                         
   Description                                                                  
     l       E           TYP  RCUT    TYP  RCUT                                 
     0    -75.5905419     23  1.500                                             
     0    -76.9511245     23  1.500                                             
     0    108.8466080     23  1.500                                             
     1    -39.9756040     23  1.800                                             
     1     68.0291300     23  1.800                                             
     2     -2.4478587     23  2.150                                             
     2     -0.0030619     23  2.150                                             
     3      4.0817478     23  2.300                                             
  local pseudopotential read in
  partial core-charges read in
  partial kinetic energy density read in
  kinetic energy density of atom read in
  atomic valenz-charges read in
  non local Contribution for L=           0  read in
    real space projection operators read in
  non local Contribution for L=           0  read in
    real space projection operators read in
  non local Contribution for L=           0  read in
    real space projection operators read in
  non local Contribution for L=           1  read in
    real space projection operators read in
  non local Contribution for L=           1  read in
    real space projection operators read in
  non local Contribution for L=           2  read in
    real space projection operators read in
  non local Contribution for L=           2  read in
    real space projection operators read in
  non local Contribution for L=           3  read in
    real space projection operators read in
    PAW grid and wavefunctions read in
 
   number of l-projection  operators is LMAX  =           8
   number of lm-projection operators is LMMAX =          26
 
 POTCAR:    PAW_PBE S_GW 19Mar2012                
   VRHFIN =S : s2p4                                                             
   LEXCH  = PE                                                                  
   EATOM  =   276.8230 eV,   20.3459 Ry                                         
                                                                                
   TITEL  = PAW_PBE S_GW 19Mar2012                                              
   LULTRA =        F    use ultrasoft PP ?                                      
   IUNSCR =        1    unscreen: 0-lin 1-nonlin 2-no                           
   RPACOR =    1.400    partial core radius                                     
   POMASS =   32.066; ZVAL   =    6.000    mass and valenz                      
   RCORE  =    1.900    outmost cutoff radius                                   
   RWIGS  =    1.900; RWIGS  =    1.005    wigner-seitz radius (au A)           
   ENMAX  =  258.689; ENMIN  =  194.016 eV                                      
   ICORE  =        3    local potential                                         
   LCOR   =        T    correct aug charges                                     
   LPAW   =        T    paw PP                                                  
   EAUG   =  488.319                                                            
   DEXC   =    0.000                                                            
   RMAX   =    1.942    core radius for proj-oper                               
   RAUG   =    1.300    factor for augmentation sphere                          
   RDEP   =    1.954    radius for radial grids                                 
   RDEPT  =    1.900    core radius for aug-charge                              
                                                                                
   Atomic configuration                                                         
    7 entries                                                                   
     n  l   j            E        occ.                                          
     1  0  0.50     -2405.8406   2.0000                                         
     2  0  0.50      -211.7007   2.0000                                         
     2  1  1.50      -156.4958   6.0000                                         
     3  0  0.50       -17.2562   2.0000                                         
     3  1  0.50        -7.0085   4.0000                                         
     3  2  1.50        -8.1635   0.0000                                         
     4  3  2.50        -1.3606   0.0000                                         
   Description                                                                  
     l       E           TYP  RCUT    TYP  RCUT                                 
     0    -17.2561639     23  1.700                                             
     0     88.4378690     23  1.900                                             
     1     -7.0085399     23  1.900                                             
     1     88.4378690     23  1.900                                             
     2    -10.8846608     23  1.900                                             
     2     54.4233040     23  1.900                                             
     3     27.2116520     23  1.800                                             
  local pseudopotential read in
  partial core-charges read in
  partial kinetic energy density read in
  kinetic energy density of atom read in
  atomic valenz-charges read in
  non local Contribution for L=           0  read in
    real space projection operators read in
  non local Contribution for L=           0  read in
    real space projection operators read in
  non local Contribution for L=           1  read in
    real space projection operators read in
  non local Contribution for L=           1  read in
    real space projection operators read in
  non local Contribution for L=           2  read in
    real space projection operators read in
  non local Contribution for L=           2  read in
    real space projection operators read in
    PAW grid and wavefunctions read in
 
   number of l-projection  operators is LMAX  =           6
   number of lm-projection operators is LMMAX =          18
 
  PAW_PBE W_sv_GW 23Mar2010             :
 energy of atom  1       EATOM=-1863.8917
 kinetic energy error for atom=    0.2291 (will be added to EATOM!!)
  PAW_PBE S_GW 19Mar2012                :
 energy of atom  2       EATOM= -276.8230
 kinetic energy error for atom=    0.0074 (will be added to EATOM!!)
 
 
 POSCAR:  W  S                                   
  positions in cartesian coordinates
  No initial velocities read in
 exchange correlation table for  LEXCH =        8
   RHO(1)=    0.500       N(1)  =     2000
   RHO(2)=  100.500       N(2)  =     4000
 


--------------------------------------------------------------------------------------------------------


 ion  position               nearest neighbor table
   1  0.167  0.333  0.377-   4 2.42   4 2.42   4 2.42   5 2.42   5 2.42   5 2.42
   2  0.833  0.667  0.500-   6 2.42   7 2.42   6 2.42   7 2.42   6 2.42   7 2.42
   3  0.167  0.333  0.623-   9 2.42   9 2.42   9 2.42   8 2.42   8 2.42   8 2.42
   4  0.833  0.667  0.408-   1 2.42   1 2.42   1 2.42
   5  0.833  0.667  0.346-   1 2.42   1 2.42   1 2.42
   6  0.167  0.333  0.531-   2 2.42   2 2.42   2 2.42
   7  0.167  0.333  0.469-   2 2.42   2 2.42   2 2.42
   8  0.833  0.667  0.654-   3 2.42   3 2.42   3 2.42
   9  0.833  0.667  0.592-   3 2.42   3 2.42   3 2.42
 
  LATTYP: Found a hexagonal cell.
 ALAT       =     3.1859459497
 C/A-ratio  =    15.6939260082
  
  Lattice vectors:
  
 A1 = (   3.1859459497,   0.0000000000,   0.0000000000)
 A2 = (  -1.5929729748,   2.7591101275,   0.0000000000)
 A3 = (   0.0000000000,   0.0000000000,  50.0000000000)


Analysis of symmetry for initial positions (statically):
=====================================================================
 Subroutine PRICEL returns:
 Original cell was already a primitive cell.
 

 Routine SETGRP: Setting up the symmetry group for a 
 hexagonal supercell.


 Subroutine GETGRP returns: Found 12 space group operations
 (whereof  4 operations were pure point group operations)
 out of a pool of 24 trial point group operations.


The static configuration has the point symmetry C_2v.
 The point group associated with its full space group is D_3h.


Analysis of symmetry for dynamics (positions and initial velocities):
=====================================================================
 Subroutine PRICEL returns:
 Original cell was already a primitive cell.
 

 Routine SETGRP: Setting up the symmetry group for a 
 hexagonal supercell.


 Subroutine GETGRP returns: Found 12 space group operations
 (whereof  4 operations were pure point group operations)
 out of a pool of 24 trial point group operations.


The dynamic configuration has the point symmetry C_2v.
 The point group associated with its full space group is D_3h.


 Subroutine INISYM returns: Found 12 space group operations
 (whereof  4 operations are pure point group operations),
 and found     1 'primitive' translations

 
 
 KPOINTS: KPOINTS created by Atomic Simulation Env

Automatic generation of k-mesh.
Space group operators:
 irot       det(A)        alpha          n_x          n_y          n_z        tau_x        tau_y        tau_z
    1     1.000000     0.000000     1.000000     0.000000     0.000000     0.000000     0.000000     0.000000
    2    -1.000000   180.000000     0.000000     0.000000     1.000000     0.000000     0.000000     0.000000
    3    -1.000000   180.000000     1.000000     0.000000     0.000000     0.000000     0.000000     0.000000
    4     1.000000   180.000000     0.000000     1.000000     0.000000     0.000000     0.000000     0.000000
    5    -1.000000    60.000000     0.000000     0.000000    -1.000000     0.000000     0.500000     0.000000
    6     1.000000   120.000000     0.000000     0.000000    -1.000000     0.500000     0.500000     0.000000
    7     1.000000   120.000000     0.000000     0.000000     1.000000     0.000000     0.500000     0.000000
    8    -1.000000    60.000000     0.000000     0.000000     1.000000     0.500000     0.500000     0.000000
    9     1.000000   180.000000     0.866025    -0.500000     0.000000     0.500000     0.500000     0.000000
   10    -1.000000   180.000000     0.500000    -0.866025     0.000000     0.000000     0.500000     0.000000
   11    -1.000000   180.000000    -0.500000    -0.866025     0.000000     0.500000     0.500000     0.000000
   12     1.000000   180.000000     0.866025     0.500000     0.000000     0.000000     0.500000     0.000000
 
 Subroutine IBZKPT returns following result:
 ===========================================
 
 Found     37 irreducible k-points:
 
 Following reciprocal coordinates:
            Coordinates               Weight
  0.000000  0.000000  0.000000      1.000000
  0.055556  0.000000  0.000000      6.000000
  0.111111  0.000000  0.000000      6.000000
  0.166667  0.000000  0.000000      6.000000
  0.222222  0.000000  0.000000      6.000000
  0.277778  0.000000  0.000000      6.000000
  0.333333  0.000000  0.000000      6.000000
  0.388889  0.000000  0.000000      6.000000
  0.444444  0.000000  0.000000      6.000000
  0.500000  0.000000  0.000000      3.000000
  0.055556  0.055556  0.000000      6.000000
  0.111111  0.055556  0.000000     12.000000
  0.166667  0.055556  0.000000     12.000000
  0.222222  0.055556  0.000000     12.000000
  0.277778  0.055556  0.000000     12.000000
  0.333333  0.055556  0.000000     12.000000
  0.388889  0.055556  0.000000     12.000000
  0.444444  0.055556  0.000000     12.000000
  0.111111  0.111111  0.000000      6.000000
  0.166667  0.111111  0.000000     12.000000
  0.222222  0.111111  0.000000     12.000000
  0.277778  0.111111  0.000000     12.000000
  0.333333  0.111111  0.000000     12.000000
  0.388889  0.111111  0.000000     12.000000
  0.444444  0.111111  0.000000      6.000000
  0.166667  0.166667  0.000000      6.000000
  0.222222  0.166667  0.000000     12.000000
  0.277778  0.166667  0.000000     12.000000
  0.333333  0.166667  0.000000     12.000000
  0.388889  0.166667  0.000000     12.000000
  0.222222  0.222222  0.000000      6.000000
  0.277778  0.222222  0.000000     12.000000
  0.333333  0.222222  0.000000     12.000000
  0.388889  0.222222  0.000000      6.000000
  0.277778  0.277778  0.000000      6.000000
  0.333333  0.277778  0.000000     12.000000
  0.333333  0.333333  0.000000      2.000000
 
 Following cartesian coordinates:
            Coordinates               Weight
  0.000000  0.000000  0.000000      1.000000
  0.017438  0.010068  0.000000      6.000000
  0.034875  0.020135  0.000000      6.000000
  0.052313  0.030203  0.000000      6.000000
  0.069751  0.040271  0.000000      6.000000
  0.087188  0.050338  0.000000      6.000000
  0.104626  0.060406  0.000000      6.000000
  0.122064  0.070474  0.000000      6.000000
  0.139502  0.080541  0.000000      6.000000
  0.156939  0.090609  0.000000      3.000000
  0.017438  0.030203  0.000000      6.000000
  0.034875  0.040271  0.000000     12.000000
  0.052313  0.050338  0.000000     12.000000
  0.069751  0.060406  0.000000     12.000000
  0.087188  0.070474  0.000000     12.000000
  0.104626  0.080541  0.000000     12.000000
  0.122064  0.090609  0.000000     12.000000
  0.139502  0.100677  0.000000     12.000000
  0.034875  0.060406  0.000000      6.000000
  0.052313  0.070474  0.000000     12.000000
  0.069751  0.080541  0.000000     12.000000
  0.087188  0.090609  0.000000     12.000000
  0.104626  0.100677  0.000000     12.000000
  0.122064  0.110744  0.000000     12.000000
  0.139502  0.120812  0.000000      6.000000
  0.052313  0.090609  0.000000      6.000000
  0.069751  0.100677  0.000000     12.000000
  0.087188  0.110744  0.000000     12.000000
  0.104626  0.120812  0.000000     12.000000
  0.122064  0.130880  0.000000     12.000000
  0.069751  0.120812  0.000000      6.000000
  0.087188  0.130880  0.000000     12.000000
  0.104626  0.140947  0.000000     12.000000
  0.122064  0.151015  0.000000      6.000000
  0.087188  0.151015  0.000000      6.000000
  0.104626  0.161083  0.000000     12.000000
  0.104626  0.181218  0.000000      2.000000
 
 TETIRR: Found    169 inequivalent tetrahedra from     1944
 
 Subroutine IBZKPT_HF returns following result:
 ==============================================
 
 Found    324 k-points in 1st BZ
 the following    324 k-points will be used (e.g. in the exchange kernel)
 Following reciprocal coordinates:   # in IRBZ
  0.000000  0.000000  0.000000    0.00308642   1 t-inv F
  0.055556  0.000000  0.000000    0.00308642   2 t-inv F
  0.111111  0.000000  0.000000    0.00308642   3 t-inv F
  0.166667  0.000000  0.000000    0.00308642   4 t-inv F
  0.222222  0.000000  0.000000    0.00308642   5 t-inv F
  0.277778  0.000000  0.000000    0.00308642   6 t-inv F
  0.333333  0.000000  0.000000    0.00308642   7 t-inv F
  0.388889  0.000000  0.000000    0.00308642   8 t-inv F
  0.444444  0.000000  0.000000    0.00308642   9 t-inv F
  0.500000  0.000000  0.000000    0.00308642  10 t-inv F
  0.055556  0.055556  0.000000    0.00308642  11 t-inv F
  0.111111  0.055556  0.000000    0.00308642  12 t-inv F
  0.166667  0.055556  0.000000    0.00308642  13 t-inv F
  0.222222  0.055556  0.000000    0.00308642  14 t-inv F
  0.277778  0.055556  0.000000    0.00308642  15 t-inv F
  0.333333  0.055556  0.000000    0.00308642  16 t-inv F
  0.388889  0.055556  0.000000    0.00308642  17 t-inv F
  0.444444  0.055556  0.000000    0.00308642  18 t-inv F
  0.111111  0.111111  0.000000    0.00308642  19 t-inv F
  0.166667  0.111111  0.000000    0.00308642  20 t-inv F
  0.222222  0.111111  0.000000    0.00308642  21 t-inv F
  0.277778  0.111111  0.000000    0.00308642  22 t-inv F
  0.333333  0.111111  0.000000    0.00308642  23 t-inv F
  0.388889  0.111111  0.000000    0.00308642  24 t-inv F
  0.444444  0.111111  0.000000    0.00308642  25 t-inv F
  0.166667  0.166667  0.000000    0.00308642  26 t-inv F
  0.222222  0.166667  0.000000    0.00308642  27 t-inv F
  0.277778  0.166667  0.000000    0.00308642  28 t-inv F
  0.333333  0.166667  0.000000    0.00308642  29 t-inv F
  0.388889  0.166667  0.000000    0.00308642  30 t-inv F
  0.222222  0.222222  0.000000    0.00308642  31 t-inv F
  0.277778  0.222222  0.000000    0.00308642  32 t-inv F
  0.333333  0.222222  0.000000    0.00308642  33 t-inv F
  0.388889  0.222222  0.000000    0.00308642  34 t-inv F
  0.277778  0.277778  0.000000    0.00308642  35 t-inv F
  0.333333  0.277778  0.000000    0.00308642  36 t-inv F
  0.333333  0.333333  0.000000    0.00308642  37 t-inv F
 -0.055556  0.055556  0.000000    0.00308642   2 t-inv F
  0.000000 -0.055556 -0.000000    0.00308642   2 t-inv F
 -0.111111  0.111111  0.000000    0.00308642   3 t-inv F
  0.000000 -0.111111 -0.000000    0.00308642   3 t-inv F
 -0.166667  0.166667  0.000000    0.00308642   4 t-inv F
  0.000000 -0.166667 -0.000000    0.00308642   4 t-inv F
 -0.222222  0.222222  0.000000    0.00308642   5 t-inv F
  0.000000 -0.222222 -0.000000    0.00308642   5 t-inv F
 -0.277778  0.277778  0.000000    0.00308642   6 t-inv F
  0.000000 -0.277778 -0.000000    0.00308642   6 t-inv F
 -0.333333  0.333333  0.000000    0.00308642   7 t-inv F
  0.000000 -0.333333 -0.000000    0.00308642   7 t-inv F
 -0.388889  0.388889  0.000000    0.00308642   8 t-inv F
  0.000000 -0.388889 -0.000000    0.00308642   8 t-inv F
 -0.444444  0.444444  0.000000    0.00308642   9 t-inv F
  0.000000 -0.444444 -0.000000    0.00308642   9 t-inv F
 -0.500000  0.500000  0.000000    0.00308642  10 t-inv F
  0.000000 -0.500000 -0.000000    0.00308642  10 t-inv F
 -0.055556  0.111111  0.000000    0.00308642  11 t-inv F
  0.055556 -0.111111 -0.000000    0.00308642  11 t-inv F
 -0.111111  0.055556  0.000000    0.00308642  11 t-inv F
 -0.055556 -0.055556 -0.000000    0.00308642  11 t-inv F
  0.111111 -0.055556  0.000000    0.00308642  11 t-inv F
 -0.111111  0.166667  0.000000    0.00308642  12 t-inv F
  0.055556 -0.166667 -0.000000    0.00308642  12 t-inv F
 -0.166667  0.111111  0.000000    0.00308642  12 t-inv F
 -0.055556 -0.111111 -0.000000    0.00308642  12 t-inv F
  0.166667 -0.055556  0.000000    0.00308642  12 t-inv F
 -0.166667  0.222222  0.000000    0.00308642  13 t-inv F
  0.055556 -0.222222 -0.000000    0.00308642  13 t-inv F
 -0.222222  0.166667  0.000000    0.00308642  13 t-inv F
 -0.055556 -0.166667 -0.000000    0.00308642  13 t-inv F
  0.222222 -0.055556  0.000000    0.00308642  13 t-inv F
 -0.222222  0.277778  0.000000    0.00308642  14 t-inv F
  0.055556 -0.277778 -0.000000    0.00308642  14 t-inv F
 -0.277778  0.222222  0.000000    0.00308642  14 t-inv F
 -0.055556 -0.222222 -0.000000    0.00308642  14 t-inv F
  0.277778 -0.055556  0.000000    0.00308642  14 t-inv F
 -0.277778  0.333333  0.000000    0.00308642  15 t-inv F
  0.055556 -0.333333 -0.000000    0.00308642  15 t-inv F
 -0.333333  0.277778  0.000000    0.00308642  15 t-inv F
 -0.055556 -0.277778 -0.000000    0.00308642  15 t-inv F
  0.333333 -0.055556  0.000000    0.00308642  15 t-inv F
 -0.333333  0.388889  0.000000    0.00308642  16 t-inv F
  0.055556 -0.388889 -0.000000    0.00308642  16 t-inv F
 -0.388889  0.333333  0.000000    0.00308642  16 t-inv F
 -0.055556 -0.333333 -0.000000    0.00308642  16 t-inv F
  0.388889 -0.055556  0.000000    0.00308642  16 t-inv F
 -0.388889  0.444444  0.000000    0.00308642  17 t-inv F
  0.055556 -0.444444 -0.000000    0.00308642  17 t-inv F
 -0.444444  0.388889  0.000000    0.00308642  17 t-inv F
 -0.055556 -0.388889 -0.000000    0.00308642  17 t-inv F
  0.444444 -0.055556  0.000000    0.00308642  17 t-inv F
 -0.444444  0.500000  0.000000    0.00308642  18 t-inv F
  0.055556 -0.500000 -0.000000    0.00308642  18 t-inv F
 -0.500000  0.444444  0.000000    0.00308642  18 t-inv F
 -0.055556 -0.444444 -0.000000    0.00308642  18 t-inv F
  0.500000 -0.055556  0.000000    0.00308642  18 t-inv F
 -0.111111  0.222222  0.000000    0.00308642  19 t-inv F
  0.111111 -0.222222 -0.000000    0.00308642  19 t-inv F
 -0.222222  0.111111  0.000000    0.00308642  19 t-inv F
 -0.111111 -0.111111 -0.000000    0.00308642  19 t-inv F
  0.222222 -0.111111  0.000000    0.00308642  19 t-inv F
 -0.166667  0.277778  0.000000    0.00308642  20 t-inv F
  0.111111 -0.277778 -0.000000    0.00308642  20 t-inv F
 -0.277778  0.166667  0.000000    0.00308642  20 t-inv F
 -0.111111 -0.166667 -0.000000    0.00308642  20 t-inv F
  0.277778 -0.111111  0.000000    0.00308642  20 t-inv F
 -0.222222  0.333333  0.000000    0.00308642  21 t-inv F
  0.111111 -0.333333 -0.000000    0.00308642  21 t-inv F
 -0.333333  0.222222  0.000000    0.00308642  21 t-inv F
 -0.111111 -0.222222 -0.000000    0.00308642  21 t-inv F
  0.333333 -0.111111  0.000000    0.00308642  21 t-inv F
 -0.277778  0.388889  0.000000    0.00308642  22 t-inv F
  0.111111 -0.388889 -0.000000    0.00308642  22 t-inv F
 -0.388889  0.277778  0.000000    0.00308642  22 t-inv F
 -0.111111 -0.277778 -0.000000    0.00308642  22 t-inv F
  0.388889 -0.111111  0.000000    0.00308642  22 t-inv F
 -0.333333  0.444444  0.000000    0.00308642  23 t-inv F
  0.111111 -0.444444 -0.000000    0.00308642  23 t-inv F
 -0.444444  0.333333  0.000000    0.00308642  23 t-inv F
 -0.111111 -0.333333 -0.000000    0.00308642  23 t-inv F
  0.444444 -0.111111  0.000000    0.00308642  23 t-inv F
 -0.388889  0.500000  0.000000    0.00308642  24 t-inv F
  0.111111 -0.500000 -0.000000    0.00308642  24 t-inv F
 -0.500000  0.388889  0.000000    0.00308642  24 t-inv F
 -0.111111 -0.388889 -0.000000    0.00308642  24 t-inv F
  0.500000 -0.111111  0.000000    0.00308642  24 t-inv F
 -0.444444  0.555556  0.000000    0.00308642  25 t-inv F
  0.111111 -0.555556 -0.000000    0.00308642  25 t-inv F
 -0.555556  0.444444  0.000000    0.00308642  25 t-inv F
 -0.111111 -0.444444 -0.000000    0.00308642  25 t-inv F
  0.555556 -0.111111  0.000000    0.00308642  25 t-inv F
 -0.166667  0.333333  0.000000    0.00308642  26 t-inv F
  0.166667 -0.333333 -0.000000    0.00308642  26 t-inv F
 -0.333333  0.166667  0.000000    0.00308642  26 t-inv F
 -0.166667 -0.166667 -0.000000    0.00308642  26 t-inv F
  0.333333 -0.166667  0.000000    0.00308642  26 t-inv F
 -0.222222  0.388889  0.000000    0.00308642  27 t-inv F
  0.166667 -0.388889 -0.000000    0.00308642  27 t-inv F
 -0.388889  0.222222  0.000000    0.00308642  27 t-inv F
 -0.166667 -0.222222 -0.000000    0.00308642  27 t-inv F
  0.388889 -0.166667  0.000000    0.00308642  27 t-inv F
 -0.277778  0.444444  0.000000    0.00308642  28 t-inv F
  0.166667 -0.444444 -0.000000    0.00308642  28 t-inv F
 -0.444444  0.277778  0.000000    0.00308642  28 t-inv F
 -0.166667 -0.277778 -0.000000    0.00308642  28 t-inv F
  0.444444 -0.166667  0.000000    0.00308642  28 t-inv F
 -0.333333  0.500000  0.000000    0.00308642  29 t-inv F
  0.166667 -0.500000 -0.000000    0.00308642  29 t-inv F
 -0.500000  0.333333  0.000000    0.00308642  29 t-inv F
 -0.166667 -0.333333 -0.000000    0.00308642  29 t-inv F
  0.500000 -0.166667  0.000000    0.00308642  29 t-inv F
 -0.388889  0.555556  0.000000    0.00308642  30 t-inv F
  0.166667 -0.555556 -0.000000    0.00308642  30 t-inv F
 -0.555556  0.388889  0.000000    0.00308642  30 t-inv F
 -0.166667 -0.388889 -0.000000    0.00308642  30 t-inv F
  0.555556 -0.166667  0.000000    0.00308642  30 t-inv F
 -0.222222  0.444444  0.000000    0.00308642  31 t-inv F
  0.222222 -0.444444 -0.000000    0.00308642  31 t-inv F
 -0.444444  0.222222  0.000000    0.00308642  31 t-inv F
 -0.222222 -0.222222 -0.000000    0.00308642  31 t-inv F
  0.444444 -0.222222  0.000000    0.00308642  31 t-inv F
 -0.277778  0.500000  0.000000    0.00308642  32 t-inv F
  0.222222 -0.500000 -0.000000    0.00308642  32 t-inv F
 -0.500000  0.277778  0.000000    0.00308642  32 t-inv F
 -0.222222 -0.277778 -0.000000    0.00308642  32 t-inv F
  0.500000 -0.222222  0.000000    0.00308642  32 t-inv F
 -0.333333  0.555556  0.000000    0.00308642  33 t-inv F
  0.222222 -0.555556 -0.000000    0.00308642  33 t-inv F
 -0.555556  0.333333  0.000000    0.00308642  33 t-inv F
 -0.222222 -0.333333 -0.000000    0.00308642  33 t-inv F
  0.555556 -0.222222  0.000000    0.00308642  33 t-inv F
 -0.388889  0.611111  0.000000    0.00308642  34 t-inv F
  0.222222 -0.611111 -0.000000    0.00308642  34 t-inv F
 -0.611111  0.388889  0.000000    0.00308642  34 t-inv F
 -0.222222 -0.388889 -0.000000    0.00308642  34 t-inv F
  0.611111 -0.222222  0.000000    0.00308642  34 t-inv F
 -0.277778  0.555556  0.000000    0.00308642  35 t-inv F
  0.277778 -0.555556 -0.000000    0.00308642  35 t-inv F
 -0.555556  0.277778  0.000000    0.00308642  35 t-inv F
 -0.277778 -0.277778 -0.000000    0.00308642  35 t-inv F
  0.555556 -0.277778  0.000000    0.00308642  35 t-inv F
 -0.333333  0.611111  0.000000    0.00308642  36 t-inv F
  0.277778 -0.611111 -0.000000    0.00308642  36 t-inv F
 -0.611111  0.333333  0.000000    0.00308642  36 t-inv F
 -0.277778 -0.333333 -0.000000    0.00308642  36 t-inv F
  0.611111 -0.277778  0.000000    0.00308642  36 t-inv F
 -0.333333  0.666667  0.000000    0.00308642  37 t-inv F
 -0.055556 -0.000000 -0.000000    0.00308642   2 t-inv T
  0.055556 -0.055556 -0.000000    0.00308642   2 t-inv T
 -0.000000  0.055556  0.000000    0.00308642   2 t-inv T
 -0.111111 -0.000000 -0.000000    0.00308642   3 t-inv T
  0.111111 -0.111111 -0.000000    0.00308642   3 t-inv T
 -0.000000  0.111111  0.000000    0.00308642   3 t-inv T
 -0.166667 -0.000000 -0.000000    0.00308642   4 t-inv T
  0.166667 -0.166667 -0.000000    0.00308642   4 t-inv T
 -0.000000  0.166667  0.000000    0.00308642   4 t-inv T
 -0.222222 -0.000000 -0.000000    0.00308642   5 t-inv T
  0.222222 -0.222222 -0.000000    0.00308642   5 t-inv T
 -0.000000  0.222222  0.000000    0.00308642   5 t-inv T
 -0.277778 -0.000000 -0.000000    0.00308642   6 t-inv T
  0.277778 -0.277778 -0.000000    0.00308642   6 t-inv T
 -0.000000  0.277778  0.000000    0.00308642   6 t-inv T
 -0.333333 -0.000000 -0.000000    0.00308642   7 t-inv T
  0.333333 -0.333333 -0.000000    0.00308642   7 t-inv T
 -0.000000  0.333333  0.000000    0.00308642   7 t-inv T
 -0.388889 -0.000000 -0.000000    0.00308642   8 t-inv T
  0.388889 -0.388889 -0.000000    0.00308642   8 t-inv T
 -0.000000  0.388889  0.000000    0.00308642   8 t-inv T
 -0.444444 -0.000000 -0.000000    0.00308642   9 t-inv T
  0.444444 -0.444444 -0.000000    0.00308642   9 t-inv T
 -0.000000  0.444444  0.000000    0.00308642   9 t-inv T
 -0.111111 -0.055556 -0.000000    0.00308642  12 t-inv T
  0.111111 -0.166667 -0.000000    0.00308642  12 t-inv T
 -0.055556  0.166667  0.000000    0.00308642  12 t-inv T
  0.166667 -0.111111 -0.000000    0.00308642  12 t-inv T
  0.055556  0.111111  0.000000    0.00308642  12 t-inv T
 -0.166667  0.055556 -0.000000    0.00308642  12 t-inv T
 -0.166667 -0.055556 -0.000000    0.00308642  13 t-inv T
  0.166667 -0.222222 -0.000000    0.00308642  13 t-inv T
 -0.055556  0.222222  0.000000    0.00308642  13 t-inv T
  0.222222 -0.166667 -0.000000    0.00308642  13 t-inv T
  0.055556  0.166667  0.000000    0.00308642  13 t-inv T
 -0.222222  0.055556 -0.000000    0.00308642  13 t-inv T
 -0.222222 -0.055556 -0.000000    0.00308642  14 t-inv T
  0.222222 -0.277778 -0.000000    0.00308642  14 t-inv T
 -0.055556  0.277778  0.000000    0.00308642  14 t-inv T
  0.277778 -0.222222 -0.000000    0.00308642  14 t-inv T
  0.055556  0.222222  0.000000    0.00308642  14 t-inv T
 -0.277778  0.055556 -0.000000    0.00308642  14 t-inv T
 -0.277778 -0.055556 -0.000000    0.00308642  15 t-inv T
  0.277778 -0.333333 -0.000000    0.00308642  15 t-inv T
 -0.055556  0.333333  0.000000    0.00308642  15 t-inv T
  0.333333 -0.277778 -0.000000    0.00308642  15 t-inv T
  0.055556  0.277778  0.000000    0.00308642  15 t-inv T
 -0.333333  0.055556 -0.000000    0.00308642  15 t-inv T
 -0.333333 -0.055556 -0.000000    0.00308642  16 t-inv T
  0.333333 -0.388889 -0.000000    0.00308642  16 t-inv T
 -0.055556  0.388889  0.000000    0.00308642  16 t-inv T
  0.388889 -0.333333 -0.000000    0.00308642  16 t-inv T
  0.055556  0.333333  0.000000    0.00308642  16 t-inv T
 -0.388889  0.055556 -0.000000    0.00308642  16 t-inv T
 -0.388889 -0.055556 -0.000000    0.00308642  17 t-inv T
  0.388889 -0.444444 -0.000000    0.00308642  17 t-inv T
 -0.055556  0.444444  0.000000    0.00308642  17 t-inv T
  0.444444 -0.388889 -0.000000    0.00308642  17 t-inv T
  0.055556  0.388889  0.000000    0.00308642  17 t-inv T
 -0.444444  0.055556 -0.000000    0.00308642  17 t-inv T
 -0.444444 -0.055556 -0.000000    0.00308642  18 t-inv T
  0.444444 -0.500000 -0.000000    0.00308642  18 t-inv T
 -0.055556  0.500000  0.000000    0.00308642  18 t-inv T
  0.500000 -0.444444 -0.000000    0.00308642  18 t-inv T
  0.055556  0.444444  0.000000    0.00308642  18 t-inv T
 -0.500000  0.055556 -0.000000    0.00308642  18 t-inv T
 -0.166667 -0.111111 -0.000000    0.00308642  20 t-inv T
  0.166667 -0.277778 -0.000000    0.00308642  20 t-inv T
 -0.111111  0.277778  0.000000    0.00308642  20 t-inv T
  0.277778 -0.166667 -0.000000    0.00308642  20 t-inv T
  0.111111  0.166667  0.000000    0.00308642  20 t-inv T
 -0.277778  0.111111 -0.000000    0.00308642  20 t-inv T
 -0.222222 -0.111111 -0.000000    0.00308642  21 t-inv T
  0.222222 -0.333333 -0.000000    0.00308642  21 t-inv T
 -0.111111  0.333333  0.000000    0.00308642  21 t-inv T
  0.333333 -0.222222 -0.000000    0.00308642  21 t-inv T
  0.111111  0.222222  0.000000    0.00308642  21 t-inv T
 -0.333333  0.111111 -0.000000    0.00308642  21 t-inv T
 -0.277778 -0.111111 -0.000000    0.00308642  22 t-inv T
  0.277778 -0.388889 -0.000000    0.00308642  22 t-inv T
 -0.111111  0.388889  0.000000    0.00308642  22 t-inv T
  0.388889 -0.277778 -0.000000    0.00308642  22 t-inv T
  0.111111  0.277778  0.000000    0.00308642  22 t-inv T
 -0.388889  0.111111 -0.000000    0.00308642  22 t-inv T
 -0.333333 -0.111111 -0.000000    0.00308642  23 t-inv T
  0.333333 -0.444444 -0.000000    0.00308642  23 t-inv T
 -0.111111  0.444444  0.000000    0.00308642  23 t-inv T
  0.444444 -0.333333 -0.000000    0.00308642  23 t-inv T
  0.111111  0.333333  0.000000    0.00308642  23 t-inv T
 -0.444444  0.111111 -0.000000    0.00308642  23 t-inv T
 -0.388889 -0.111111 -0.000000    0.00308642  24 t-inv T
  0.388889 -0.500000 -0.000000    0.00308642  24 t-inv T
 -0.111111  0.500000  0.000000    0.00308642  24 t-inv T
  0.500000 -0.388889 -0.000000    0.00308642  24 t-inv T
  0.111111  0.388889  0.000000    0.00308642  24 t-inv T
 -0.500000  0.111111 -0.000000    0.00308642  24 t-inv T
 -0.222222 -0.166667 -0.000000    0.00308642  27 t-inv T
  0.222222 -0.388889 -0.000000    0.00308642  27 t-inv T
 -0.166667  0.388889  0.000000    0.00308642  27 t-inv T
  0.388889 -0.222222 -0.000000    0.00308642  27 t-inv T
  0.166667  0.222222  0.000000    0.00308642  27 t-inv T
 -0.388889  0.166667 -0.000000    0.00308642  27 t-inv T
 -0.277778 -0.166667 -0.000000    0.00308642  28 t-inv T
  0.277778 -0.444444 -0.000000    0.00308642  28 t-inv T
 -0.166667  0.444444  0.000000    0.00308642  28 t-inv T
  0.444444 -0.277778 -0.000000    0.00308642  28 t-inv T
  0.166667  0.277778  0.000000    0.00308642  28 t-inv T
 -0.444444  0.166667 -0.000000    0.00308642  28 t-inv T
 -0.333333 -0.166667 -0.000000    0.00308642  29 t-inv T
  0.333333 -0.500000 -0.000000    0.00308642  29 t-inv T
 -0.166667  0.500000  0.000000    0.00308642  29 t-inv T
  0.500000 -0.333333 -0.000000    0.00308642  29 t-inv T
  0.166667  0.333333  0.000000    0.00308642  29 t-inv T
 -0.500000  0.166667 -0.000000    0.00308642  29 t-inv T
 -0.388889 -0.166667 -0.000000    0.00308642  30 t-inv T
  0.388889 -0.555556 -0.000000    0.00308642  30 t-inv T
 -0.166667  0.555556  0.000000    0.00308642  30 t-inv T
  0.555556 -0.388889 -0.000000    0.00308642  30 t-inv T
  0.166667  0.388889  0.000000    0.00308642  30 t-inv T
 -0.555556  0.166667 -0.000000    0.00308642  30 t-inv T
 -0.277778 -0.222222 -0.000000    0.00308642  32 t-inv T
  0.277778 -0.500000 -0.000000    0.00308642  32 t-inv T
 -0.222222  0.500000  0.000000    0.00308642  32 t-inv T
  0.500000 -0.277778 -0.000000    0.00308642  32 t-inv T
  0.222222  0.277778  0.000000    0.00308642  32 t-inv T
 -0.500000  0.222222 -0.000000    0.00308642  32 t-inv T
 -0.333333 -0.222222 -0.000000    0.00308642  33 t-inv T
  0.333333 -0.555556 -0.000000    0.00308642  33 t-inv T
 -0.222222  0.555556  0.000000    0.00308642  33 t-inv T
  0.555556 -0.333333 -0.000000    0.00308642  33 t-inv T
  0.222222  0.333333  0.000000    0.00308642  33 t-inv T
 -0.555556  0.222222 -0.000000    0.00308642  33 t-inv T
 -0.333333 -0.277778 -0.000000    0.00308642  36 t-inv T
  0.333333 -0.611111 -0.000000    0.00308642  36 t-inv T
 -0.277778  0.611111  0.000000    0.00308642  36 t-inv T
  0.611111 -0.333333 -0.000000    0.00308642  36 t-inv T
  0.277778  0.333333  0.000000    0.00308642  36 t-inv T
 -0.611111  0.277778 -0.000000    0.00308642  36 t-inv T


--------------------------------------------------------------------------------------------------------




 Dimension of arrays:
   k-points           NKPTS =     37   k-points in BZ     NKDIM =     37   number of bands    NBANDS=     56
   number of dos      NEDOS =    301   number of ions     NIONS =      9
   non local maximal  LDIM  =      8   non local SUM 2l+1 LMDIM =     26
   total plane-waves  NPLWV = 117600
   max r-space proj   IRMAX =      1   max aug-charges    IRDMAX=  10412
   dimension x,y,z NGX =    20 NGY =   20 NGZ =  294
   dimension x,y,z NGXF=    40 NGYF=   40 NGZF=  588
   support grid    NGXF=    40 NGYF=   40 NGZF=  588
   ions per type =               3   6
 NGX,Y,Z   is equivalent  to a cutoff of  10.44, 10.44,  9.78 a.u.
 NGXF,Y,Z  is equivalent  to a cutoff of  20.87, 20.87, 19.55 a.u.


 I would recommend the setting:
   dimension x,y,z NGX =    19 NGY =   19 NGZ =  290
 SYSTEM =  unknown system                          
 POSCAR =   W  S                                   

 Startparameter for this run:
   NWRITE =      2    write-flag & timer
   PREC   = accura    normal or accurate (medium, high low for compatibility)
   ISTART =      0    job   : 0-new  1-cont  2-samecut
   ICHARG =      2    charge: 1-file 2-atom 10-const
   ISPIN  =      1    spin polarized calculation?
   LNONCOLLINEAR =      F non collinear calculations
   LSORBIT =      F    spin-orbit coupling
   INIWAV =      1    electr: 0-lowe 1-rand  2-diag
   LASPH  =      F    aspherical Exc in radial PAW
   METAGGA=      F    non-selfconsistent MetaGGA calc.

 Electronic Relaxation 1
   ENCUT  =  317.1 eV  23.31 Ry    4.83 a.u.   4.63  4.63 72.60*2*pi/ulx,y,z
   ENINI  =  317.1     initial cutoff
   ENAUG  =  807.8 eV  augmentation charge cutoff
   NELM   =     60;   NELMIN=  5; NELMDL= -5     # of ELM steps 
   EDIFF  = 0.1E-07   stopping-criterion for ELM
   LREAL  =      F    real-space projection
   NLSPLINE    = F    spline interpolate recip. space projectors
   LCOMPAT=      F    compatible to vasp.4.4
   GGA_COMPAT  = T    GGA compatible to vasp.4.4-vasp.4.6
   LMAXPAW     = -100 max onsite density
   LMAXMIX     =    2 max onsite mixed and CHGCAR
   VOSKOWN=      0    Vosko Wilk Nusair interpolation
   ROPT   =    0.00000   0.00000
 Ionic relaxation
   EDIFFG = 0.1E-06   stopping-criterion for IOM
   NSW    =      0    number of steps for IOM
   NBLOCK =      1;   KBLOCK =      1    inner block; outer block 
   IBRION =     -1    ionic relax: 0-MD 1-quasi-New 2-CG
   NFREE  =      0    steps in history (QN), initial steepest desc. (CG)
   ISIF   =      2    stress and relaxation
   IWAVPR =     10    prediction:  0-non 1-charg 2-wave 3-comb
   ISYM   =      2    0-nonsym 1-usesym 2-fastsym
   LCORR  =      T    Harris-Foulkes like correction to forces

   POTIM  = 0.5000    time-step for ionic-motion
   TEIN   =    0.0    initial temperature
   TEBEG  =    0.0;   TEEND  =   0.0 temperature during run
   SMASS  =  -3.00    Nose mass-parameter (am)
   estimated Nose-frequenzy (Omega)   =  0.10E-29 period in steps =****** mass=  -0.232E-27a.u.
   SCALEE = 1.0000    scale energy and forces
   NPACO  =    256;   APACO  = 16.0  distance and # of slots for P.C.
   PSTRESS=    0.0 pullay stress

  Mass of Ions in am
   POMASS = 183.85 32.07
  Ionic Valenz
   ZVAL   =  14.00  6.00
  Atomic Wigner-Seitz radii
   RWIGS  =  -1.00 -1.00
  virtual crystal weights 
   VCA    =   1.00  1.00
   NELECT =      78.0000    total number of electrons
   NUPDOWN=      -1.0000    fix difference up-down

 DOS related values:
   EMIN   =  10.00;   EMAX   =-10.00  energy-range for DOS
   EFERMI =   0.00
   ISMEAR =    -5;   SIGMA  =   0.01  broadening in eV -4-tet -1-fermi 0-gaus

 Electronic relaxation 2 (details)
   IALGO  =     38    algorithm
   LDIAG  =      T    sub-space diagonalisation (order eigenvalues)
   LSUBROT=      F    optimize rotation matrix (better conditioning)
   TURBO    =      0    0=normal 1=particle mesh
   IRESTART =      0    0=no restart 2=restart with 2 vectors
   NREBOOT  =      0    no. of reboots
   NMIN     =      0    reboot dimension
   EREF     =   0.00    reference energy to select bands
   IMIX   =      4    mixing-type and parameters
     AMIX     =   0.40;   BMIX     =  1.00
     AMIX_MAG =   1.60;   BMIX_MAG =  1.00
     AMIN     =   0.10
     WC   =   100.;   INIMIX=   1;  MIXPRE=   1;  MAXMIX= -45

 Intra band minimization:
   WEIMIN = 0.0000     energy-eigenvalue tresh-hold
   EBREAK =  0.45E-10  absolut break condition
   DEPER  =   0.30     relativ break condition  

   TIME   =   0.40     timestep for ELM

  volume/ion in A,a.u.               =      48.84       329.56
  Fermi-wavevector in a.u.,A,eV,Ry     =   0.919985  1.738519 11.515585  0.846372
  Thomas-Fermi vector in A             =   2.045239
 
 Write flags
   LWAVE  =      T    write WAVECAR
   LCHARG =      T    write CHGCAR
   LVTOT  =      F    write LOCPOT, total local potential
   LVHAR  =      F    write LOCPOT, Hartree potential only
   LELF   =      F    write electronic localiz. function (ELF)
   LORBIT =      0    0 simple, 1 ext, 2 COOP (PROOUT)


 Dipole corrections
   LMONO  =      F    monopole corrections only (constant potential shift)
   LDIPOL =      F    correct potential (dipole corrections)
   IDIPOL =      0    1-x, 2-y, 3-z, 4-all directions 
   EPSILON=  1.0000000 bulk dielectric constant

 Exchange correlation treatment:
   GGA     =    PE    GGA type
   LEXCH   =     8    internal setting for exchange type
   VOSKOWN=      0    Vosko Wilk Nusair interpolation
   LHFCALC =     F    Hartree Fock is set to
   LHFONE  =     F    Hartree Fock one center treatment
   AEXX    =    0.0000 exact exchange contribution

 Linear response parameters
   LEPSILON=     T    determine dielectric tensor
   LRPA    =     F    only Hartree local field effects (RPA)
   LNABLA  =     F    use nabla operator in PAW spheres
   LVEL    =     F    velocity operator in full k-point grid
   LINTERFAST=   F  fast interpolation
   KINTER  =     0    interpolate to denser k-point grid
   CSHIFT  =0.1000    complex shift for real part using Kramers Kronig
   OMEGAMAX=  -1.0    maximum frequency
   DEG_THRESHOLD= 0.2000000E-02 threshold for treating states as degnerate
   RTIME   =    0.100 relaxation time in fs

 Orbital magnetization related:
   ORBITALMAG=     F  switch on orbital magnetization
   LCHIMAG   =     F  perturbation theory with respect to B field
   DQ        =  0.001000  dq finite difference perturbation B field



--------------------------------------------------------------------------------------------------------


 Static calculation
 charge density and potential will be updated during run
 non-spin polarized calculation
 Variant of blocked Davidson
 Davidson routine will perform the subspace rotation
 perform sub-space diagonalisation
    after iterative eigenvector-optimisation
 modified Broyden-mixing scheme, WC =      100.0
 initial mixing is a Kerker type mixing with AMIX =  0.4000 and BMIX =      1.0000
 Hartree-type preconditioning will be used
 using additional bands           17
 reciprocal scheme for non local part
 use partial core corrections
 calculate Harris-corrections to forces 
   (improved forces if not selfconsistent)
 use gradient corrections 
 use of overlap-Matrix (Vanderbilt PP)
 Fermi weights with tetrahedron method with Bloechl corrections


--------------------------------------------------------------------------------------------------------


  energy-cutoff  :      317.13
  volume of cell :      439.52
      direct lattice vectors                 reciprocal lattice vectors
     3.185945950  0.000000000  0.000000000     0.313878520  0.181217848  0.000000000
    -1.592972975  2.759110127  0.000000000     0.000000000  0.362435696  0.000000000
     0.000000000  0.000000000 50.000000000     0.000000000  0.000000000  0.020000000

  length of vectors
     3.185945950  3.185945950 50.000000000     0.362435696  0.362435696  0.020000000


 
 k-points in units of 2pi/SCALE and weight: KPOINTS created by Atomic Simulation Env
   0.00000000  0.00000000  0.00000000       0.003
   0.01743770  0.01006766  0.00000000       0.019
   0.03487539  0.02013532  0.00000000       0.019
   0.05231309  0.03020297  0.00000000       0.019
   0.06975078  0.04027063  0.00000000       0.019
   0.08718848  0.05033829  0.00000000       0.019
   0.10462617  0.06040595  0.00000000       0.019
   0.12206387  0.07047361  0.00000000       0.019
   0.13950156  0.08054127  0.00000000       0.019
   0.15693926  0.09060892  0.00000000       0.009
   0.01743770  0.03020297  0.00000000       0.019
   0.03487539  0.04027063  0.00000000       0.037
   0.05231309  0.05033829  0.00000000       0.037
   0.06975078  0.06040595  0.00000000       0.037
   0.08718848  0.07047361  0.00000000       0.037
   0.10462617  0.08054127  0.00000000       0.037
   0.12206387  0.09060892  0.00000000       0.037
   0.13950156  0.10067658  0.00000000       0.037
   0.03487539  0.06040595  0.00000000       0.019
   0.05231309  0.07047361  0.00000000       0.037
   0.06975078  0.08054127  0.00000000       0.037
   0.08718848  0.09060892  0.00000000       0.037
   0.10462617  0.10067658  0.00000000       0.037
   0.12206387  0.11074424  0.00000000       0.037
   0.13950156  0.12081190  0.00000000       0.019
   0.05231309  0.09060892  0.00000000       0.019
   0.06975078  0.10067658  0.00000000       0.037
   0.08718848  0.11074424  0.00000000       0.037
   0.10462617  0.12081190  0.00000000       0.037
   0.12206387  0.13087956  0.00000000       0.037
   0.06975078  0.12081190  0.00000000       0.019
   0.08718848  0.13087956  0.00000000       0.037
   0.10462617  0.14094722  0.00000000       0.037
   0.12206387  0.15101487  0.00000000       0.019
   0.08718848  0.15101487  0.00000000       0.019
   0.10462617  0.16108253  0.00000000       0.037
   0.10462617  0.18121785  0.00000000       0.006
 
 k-points in reciprocal lattice and weights: KPOINTS created by Atomic Simulation Env
   0.00000000  0.00000000  0.00000000       0.003
   0.05555556  0.00000000  0.00000000       0.019
   0.11111111  0.00000000  0.00000000       0.019
   0.16666667  0.00000000  0.00000000       0.019
   0.22222222  0.00000000  0.00000000       0.019
   0.27777778  0.00000000  0.00000000       0.019
   0.33333333  0.00000000  0.00000000       0.019
   0.38888889  0.00000000  0.00000000       0.019
   0.44444444  0.00000000  0.00000000       0.019
   0.50000000  0.00000000  0.00000000       0.009
   0.05555556  0.05555556  0.00000000       0.019
   0.11111111  0.05555556  0.00000000       0.037
   0.16666667  0.05555556  0.00000000       0.037
   0.22222222  0.05555556  0.00000000       0.037
   0.27777778  0.05555556  0.00000000       0.037
   0.33333333  0.05555556  0.00000000       0.037
   0.38888889  0.05555556  0.00000000       0.037
   0.44444444  0.05555556  0.00000000       0.037
   0.11111111  0.11111111  0.00000000       0.019
   0.16666667  0.11111111  0.00000000       0.037
   0.22222222  0.11111111  0.00000000       0.037
   0.27777778  0.11111111  0.00000000       0.037
   0.33333333  0.11111111  0.00000000       0.037
   0.38888889  0.11111111  0.00000000       0.037
   0.44444444  0.11111111  0.00000000       0.019
   0.16666667  0.16666667  0.00000000       0.019
   0.22222222  0.16666667  0.00000000       0.037
   0.27777778  0.16666667  0.00000000       0.037
   0.33333333  0.16666667  0.00000000       0.037
   0.38888889  0.16666667  0.00000000       0.037
   0.22222222  0.22222222  0.00000000       0.019
   0.27777778  0.22222222  0.00000000       0.037
   0.33333333  0.22222222  0.00000000       0.037
   0.38888889  0.22222222  0.00000000       0.019
   0.27777778  0.27777778  0.00000000       0.019
   0.33333333  0.27777778  0.00000000       0.037
   0.33333333  0.33333333  0.00000000       0.006
 
 position of ions in fractional coordinates (direct lattice) 
   0.16666667  0.33333333  0.37700000
   0.83333333  0.66666667  0.50000000
   0.16666667  0.33333333  0.62300000
   0.83333333  0.66666667  0.40845595
   0.83333333  0.66666667  0.34554405
   0.16666667  0.33333333  0.53145595
   0.16666667  0.33333333  0.46854405
   0.83333333  0.66666667  0.65445595
   0.83333333  0.66666667  0.59154405
 
 position of ions in cartesian coordinates  (Angst):
  -0.00000000  0.91970338 18.85000000
   1.59297297  1.83940675 25.00000000
  -0.00000000  0.91970338 31.15000000
   1.59297297  1.83940675 20.42279744
   1.59297297  1.83940675 17.27720256
  -0.00000000  0.91970338 26.57279744
  -0.00000000  0.91970338 23.42720256
   1.59297297  1.83940675 32.72279744
   1.59297297  1.83940675 29.57720256
 


--------------------------------------------------------------------------------------------------------


 k-point  1 :   0.0000 0.0000 0.0000  plane waves:    5665
 k-point  2 :   0.0556 0.0000 0.0000  plane waves:    5678
 k-point  3 :   0.1111 0.0000 0.0000  plane waves:    5694
 k-point  4 :   0.1667 0.0000 0.0000  plane waves:    5688
 k-point  5 :   0.2222 0.0000 0.0000  plane waves:    5678
 k-point  6 :   0.2778 0.0000 0.0000  plane waves:    5680
 k-point  7 :   0.3333 0.0000 0.0000  plane waves:    5664
 k-point  8 :   0.3889 0.0000 0.0000  plane waves:    5618
 k-point  9 :   0.4444 0.0000 0.0000  plane waves:    5614
 k-point 10 :   0.5000 0.0000 0.0000  plane waves:    5640
 k-point 11 :   0.0556 0.0556 0.0000  plane waves:    5667
 k-point 12 :   0.1111 0.0556 0.0000  plane waves:    5690
 k-point 13 :   0.1667 0.0556 0.0000  plane waves:    5692
 k-point 14 :   0.2222 0.0556 0.0000  plane waves:    5676
 k-point 15 :   0.2778 0.0556 0.0000  plane waves:    5662
 k-point 16 :   0.3333 0.0556 0.0000  plane waves:    5638
 k-point 17 :   0.3889 0.0556 0.0000  plane waves:    5616
 k-point 18 :   0.4444 0.0556 0.0000  plane waves:    5629
 k-point 19 :   0.1111 0.1111 0.0000  plane waves:    5683
 k-point 20 :   0.1667 0.1111 0.0000  plane waves:    5684
 k-point 21 :   0.2222 0.1111 0.0000  plane waves:    5654
 k-point 22 :   0.2778 0.1111 0.0000  plane waves:    5640
 k-point 23 :   0.3333 0.1111 0.0000  plane waves:    5632
 k-point 24 :   0.3889 0.1111 0.0000  plane waves:    5617
 k-point 25 :   0.4444 0.1111 0.0000  plane waves:    5622
 k-point 26 :   0.1667 0.1667 0.0000  plane waves:    5641
 k-point 27 :   0.2222 0.1667 0.0000  plane waves:    5630
 k-point 28 :   0.2778 0.1667 0.0000  plane waves:    5640
 k-point 29 :   0.3333 0.1667 0.0000  plane waves:    5611
 k-point 30 :   0.3889 0.1667 0.0000  plane waves:    5600
 k-point 31 :   0.2222 0.2222 0.0000  plane waves:    5625
 k-point 32 :   0.2778 0.2222 0.0000  plane waves:    5604
 k-point 33 :   0.3333 0.2222 0.0000  plane waves:    5590
 k-point 34 :   0.3889 0.2222 0.0000  plane waves:    5584
 k-point 35 :   0.2778 0.2778 0.0000  plane waves:    5569
 k-point 36 :   0.3333 0.2778 0.0000  plane waves:    5542
 k-point 37 :   0.3333 0.3333 0.0000  plane waves:    5520

 maximum and minimum number of plane-waves per node :      5694     5520

 maximum number of plane-waves:      5694
 maximum index in each direction: 
   IXMAX=    4   IYMAX=    4   IZMAX=   72
   IXMIN=   -5   IYMIN=   -4   IZMIN=  -72

 NGX is ok and might be reduce to  20
 NGY is ok and might be reduce to  18
 NGZ is ok and might be reduce to 290

 serial   3D FFT for wavefunctions
 parallel 3D FFT for charge:
    minimum data exchange during FFTs selected (reduces bandwidth)


 total amount of memory used by VASP on root node   135322. kBytes
========================================================================

   base      :      30000. kBytes
   nonl-proj :      88741. kBytes
   fftplans  :       1943. kBytes
   grid      :       7351. kBytes
   one-center:        292. kBytes
   wavefun   :       6995. kBytes
 
     INWAV:  cpu time    0.0000: real time    0.0000
 Broyden mixing: mesh for mixing (old mesh)
   NGX =  9   NGY =  9   NGZ =145
  (NGX  = 40   NGY  = 40   NGZ  =588)
  gives a total of  11745 points

 initial charge density was supplied:
 charge density of overlapping atoms calculated
 number of electron      78.0000000 magnetization 
 keeping initial charge density in first step


--------------------------------------------------------------------------------------------------------


 Maximum index for augmentation-charges          835 (set IRDMAX)


--------------------------------------------------------------------------------------------------------


 First call to EWALD:  gamma=   0.233
 Maximum number of real-space cells 7x 7x 1
 Maximum number of reciprocal cells 1x 1x15

 FEWALD executed in parallel
    FEWALD:  cpu time    0.0010: real time    0.0013


----------------------------------------- Iteration    1(   1)  ---------------------------------------


    POTLOK:  cpu time    0.0300: real time    0.0305
    SETDIJ:  cpu time    0.0060: real time    0.0056
     EDDAV:  cpu time    3.8514: real time    3.8577
 BZINTS: Fermi energy: 10.257339; 78.000000 electrons
         Band energy:-841.239256;  BLOECHL correction: -0.095544
       DOS:  cpu time    0.0170: real time    0.0172
    --------------------------------------------
      LOOP:  cpu time    3.9054: real time    3.9135

 eigenvalue-minimisations  :  5292
 total energy-change (2. order) : 0.5327035E+03  (-0.3394230E+04)
 number of electron      78.0000000 magnetization 
 augmentation part       78.0000000 magnetization 

 Free energy of the ion-electron system (eV)
  ---------------------------------------------------
  alpha Z        PSCENC =       105.25258759
  Ewald energy   TEWEN  =    103278.95197266
  -Hartree energ DENC   =   -109605.99065984
  -exchange      EXHF   =         0.00000000
  -V(xc)+E(xc)   XCENC  =        -3.59031866
  PAW double counting   =      6005.75165145    -5658.31405569
  entropy T*S    EENTRO =         0.00000000
  eigenvalues    EBANDS =      -841.23925566
  atomic energy  EATOM  =      7251.88155071
  Solvation  Ediel_sol  =         0.00000000
  ---------------------------------------------------
  free energy    TOTEN  =       532.70347256 eV

  energy without entropy =      532.70347256  energy(sigma->0) =      532.70347256


--------------------------------------------------------------------------------------------------------




----------------------------------------- Iteration    1(   2)  ---------------------------------------


     EDDAV:  cpu time    4.4413: real time    4.4450
 BZINTS: Fermi energy:  1.914232; 78.000000 electrons
         Band energy:***********;  BLOECHL correction:  0.000000
       DOS:  cpu time    0.0050: real time    0.0048
    --------------------------------------------
      LOOP:  cpu time    4.4473: real time    4.4520

 eigenvalue-minimisations  :  6216
 total energy-change (2. order) :-0.5881705E+03  (-0.5851120E+03)
 number of electron      78.0000000 magnetization 
 augmentation part       78.0000000 magnetization 

 Free energy of the ion-electron system (eV)
  ---------------------------------------------------
  alpha Z        PSCENC =       105.25258759
  Ewald energy   TEWEN  =    103278.95197266
  -Hartree energ DENC   =   -109605.99065984
  -exchange      EXHF   =         0.00000000
  -V(xc)+E(xc)   XCENC  =        -3.59031866
  PAW double counting   =      6005.75165145    -5658.31405569
  entropy T*S    EENTRO =         0.00000000
  eigenvalues    EBANDS =     -1429.40979461
  atomic energy  EATOM  =      7251.88155071
  Solvation  Ediel_sol  =         0.00000000
  ---------------------------------------------------
  free energy    TOTEN  =       -55.46706639 eV

  energy without entropy =      -55.46706639  energy(sigma->0) =      -55.46706639


--------------------------------------------------------------------------------------------------------




----------------------------------------- Iteration    1(   3)  ---------------------------------------


     EDDAV:  cpu time    4.6733: real time    4.6780
 BZINTS: Fermi energy:  0.333583; 78.000000 electrons
         Band energy:***********;  BLOECHL correction:  0.000000
       DOS:  cpu time    0.0040: real time    0.0035
    --------------------------------------------
      LOOP:  cpu time    4.6783: real time    4.6854

 eigenvalue-minimisations  :  6412
 total energy-change (2. order) :-0.2934800E+02  (-0.2929752E+02)
 number of electron      78.0000000 magnetization 
 augmentation part       78.0000000 magnetization 

 Free energy of the ion-electron system (eV)
  ---------------------------------------------------
  alpha Z        PSCENC =       105.25258759
  Ewald energy   TEWEN  =    103278.95197266
  -Hartree energ DENC   =   -109605.99065984
  -exchange      EXHF   =         0.00000000
  -V(xc)+E(xc)   XCENC  =        -3.59031866
  PAW double counting   =      6005.75165145    -5658.31405569
  entropy T*S    EENTRO =         0.00000000
  eigenvalues    EBANDS =     -1458.75779313
  atomic energy  EATOM  =      7251.88155071
  Solvation  Ediel_sol  =         0.00000000
  ---------------------------------------------------
  free energy    TOTEN  =       -84.81506491 eV

  energy without entropy =      -84.81506491  energy(sigma->0) =      -84.81506491


--------------------------------------------------------------------------------------------------------




----------------------------------------- Iteration    1(   4)  ---------------------------------------


     EDDAV:  cpu time    4.4213: real time    4.4246
 BZINTS: Fermi energy:  0.172884; 78.000000 electrons
         Band energy:***********;  BLOECHL correction:  0.000000
       DOS:  cpu time    0.0040: real time    0.0034
    --------------------------------------------
      LOOP:  cpu time    4.4263: real time    4.4302

 eigenvalue-minimisations  :  6188
 total energy-change (2. order) :-0.4978458E+00  (-0.4975897E+00)
 number of electron      78.0000000 magnetization 
 augmentation part       78.0000000 magnetization 

 Free energy of the ion-electron system (eV)
  ---------------------------------------------------
  alpha Z        PSCENC =       105.25258759
  Ewald energy   TEWEN  =    103278.95197266
  -Hartree energ DENC   =   -109605.99065984
  -exchange      EXHF   =         0.00000000
  -V(xc)+E(xc)   XCENC  =        -3.59031866
  PAW double counting   =      6005.75165145    -5658.31405569
  entropy T*S    EENTRO =         0.00000000
  eigenvalues    EBANDS =     -1459.25563896
  atomic energy  EATOM  =      7251.88155071
  Solvation  Ediel_sol  =         0.00000000
  ---------------------------------------------------
  free energy    TOTEN  =       -85.31291074 eV

  energy without entropy =      -85.31291074  energy(sigma->0) =      -85.31291074


--------------------------------------------------------------------------------------------------------




----------------------------------------- Iteration    1(   5)  ---------------------------------------


     EDDAV:  cpu time    4.5763: real time    4.5807
 BZINTS: Fermi energy:  0.134834; 78.000000 electrons
         Band energy:***********;  BLOECHL correction:  0.000000
       DOS:  cpu time    0.0040: real time    0.0035
    CHARGE:  cpu time    0.1550: real time    0.1548
    MIXING:  cpu time    0.0010: real time    0.0011
    --------------------------------------------
      LOOP:  cpu time    4.7373: real time    4.7429

 eigenvalue-minimisations  :  6300
 total energy-change (2. order) :-0.4620004E-02  (-0.4619798E-02)
 number of electron      78.0000009 magnetization 
 augmentation part      -10.3727427 magnetization 

 Broyden mixing:
  rms(total) = 0.13311E+02    rms(broyden)= 0.13310E+02
  rms(prec ) = 0.13315E+02
  weight for this iteration     100.00

 Free energy of the ion-electron system (eV)
  ---------------------------------------------------
  alpha Z        PSCENC =       105.25258759
  Ewald energy   TEWEN  =    103278.95197266
  -Hartree energ DENC   =   -109605.99065984
  -exchange      EXHF   =         0.00000000
  -V(xc)+E(xc)   XCENC  =        -3.59031866
  PAW double counting   =      6005.75165145    -5658.31405569
  entropy T*S    EENTRO =         0.00000000
  eigenvalues    EBANDS =     -1459.26025896
  atomic energy  EATOM  =      7251.88155071
  Solvation  Ediel_sol  =         0.00000000
  ---------------------------------------------------
  free energy    TOTEN  =       -85.31753074 eV

  energy without entropy =      -85.31753074  energy(sigma->0) =      -85.31753074


--------------------------------------------------------------------------------------------------------




----------------------------------------- Iteration    1(   6)  ---------------------------------------


    POTLOK:  cpu time    0.0250: real time    0.0273
    SETDIJ:  cpu time    0.0060: real time    0.0056
     EDDAV:  cpu time    3.3925: real time    3.3939
 BZINTS: Fermi energy: -0.884820; 78.000000 electrons
         Band energy:***********;  BLOECHL correction:  0.000000
       DOS:  cpu time    0.0030: real time    0.0035
    CHARGE:  cpu time    0.1540: real time    0.1547
    MIXING:  cpu time    0.0010: real time    0.0010
    --------------------------------------------
      LOOP:  cpu time    3.5845: real time    3.5895

 eigenvalue-minimisations  :  4592
 total energy-change (2. order) : 0.7508645E+01  (-0.5188644E+01)
 number of electron      78.0000009 magnetization 
 augmentation part       -9.7149659 magnetization 

 Broyden mixing:
  rms(total) = 0.12784E+02    rms(broyden)= 0.12784E+02
  rms(prec ) = 0.12785E+02
  weight for this iteration     100.00

 eigenvalues of (default mixing * dielectric matrix)
  average eigenvalue GAMMA=   2.0680
  2.0680

 Free energy of the ion-electron system (eV)
  ---------------------------------------------------
  alpha Z        PSCENC =       105.25258759
  Ewald energy   TEWEN  =    103278.95197266
  -Hartree energ DENC   =   -109487.97572603
  -exchange      EXHF   =         0.00000000
  -V(xc)+E(xc)   XCENC  =        -5.04967382
  PAW double counting   =      7566.35408408    -7223.72399432
  entropy T*S    EENTRO =         0.00000000
  eigenvalues    EBANDS =     -1563.49968661
  atomic energy  EATOM  =      7251.88155071
  Solvation  Ediel_sol  =         0.00000000
  ---------------------------------------------------
  free energy    TOTEN  =       -77.80888574 eV

  energy without entropy =      -77.80888574  energy(sigma->0) =      -77.80888574


--------------------------------------------------------------------------------------------------------




----------------------------------------- Iteration    1(   7)  ---------------------------------------


    POTLOK:  cpu time    0.0270: real time    0.0271
    SETDIJ:  cpu time    0.0050: real time    0.0056
     EDDAV:  cpu time    3.9644: real time    3.9664
 BZINTS: Fermi energy: -0.066457; 78.000000 electrons
         Band energy:***********;  BLOECHL correction:  0.000000
       DOS:  cpu time    0.0030: real time    0.0031
    CHARGE:  cpu time    0.1550: real time    0.1553
    MIXING:  cpu time    0.0020: real time    0.0011
    --------------------------------------------
      LOOP:  cpu time    4.1574: real time    4.1609

 eigenvalue-minimisations  :  5432
 total energy-change (2. order) :-0.6580149E+00  (-0.2389679E+01)
 number of electron      78.0000009 magnetization 
 augmentation part      -10.0612427 magnetization 

 Broyden mixing:
  rms(total) = 0.12808E+01    rms(broyden)= 0.12808E+01
  rms(prec ) = 0.12918E+01
  weight for this iteration     100.00

 eigenvalues of (default mixing * dielectric matrix)
  average eigenvalue GAMMA=   1.4470
  0.8531  2.0410

 Free energy of the ion-electron system (eV)
  ---------------------------------------------------
  alpha Z        PSCENC =       105.25258759
  Ewald energy   TEWEN  =    103278.95197266
  -Hartree energ DENC   =   -109584.02516986
  -exchange      EXHF   =         0.00000000
  -V(xc)+E(xc)   XCENC  =        -5.21631860
  PAW double counting   =     10194.80768681    -9846.66063167
  entropy T*S    EENTRO =         0.00000000
  eigenvalues    EBANDS =     -1473.45857831
  atomic energy  EATOM  =      7251.88155071
  Solvation  Ediel_sol  =         0.00000000
  ---------------------------------------------------
  free energy    TOTEN  =       -78.46690067 eV

  energy without entropy =      -78.46690067  energy(sigma->0) =      -78.46690067


--------------------------------------------------------------------------------------------------------




----------------------------------------- Iteration    1(   8)  ---------------------------------------


    POTLOK:  cpu time    0.0280: real time    0.0276
    SETDIJ:  cpu time    0.0050: real time    0.0056
     EDDAV:  cpu time    3.7784: real time    3.7835
 BZINTS: Fermi energy: -0.760882; 78.000000 electrons
         Band energy:***********;  BLOECHL correction:  0.000000
       DOS:  cpu time    0.0030: real time    0.0031
    CHARGE:  cpu time    0.1540: real time    0.1537
    MIXING:  cpu time    0.0010: real time    0.0010
    --------------------------------------------
      LOOP:  cpu time    3.9694: real time    3.9776

 eigenvalue-minimisations  :  5124
 total energy-change (2. order) : 0.1485726E+01  (-0.9169161E+00)
 number of electron      78.0000009 magnetization 
 augmentation part       -9.8227450 magnetization 

 Broyden mixing:
  rms(total) = 0.50199E+00    rms(broyden)= 0.50195E+00
  rms(prec ) = 0.50245E+00
  weight for this iteration     100.00

 eigenvalues of (default mixing * dielectric matrix)
  average eigenvalue GAMMA=   1.4086
  1.9219  1.5450  0.7591

 Free energy of the ion-electron system (eV)
  ---------------------------------------------------
  alpha Z        PSCENC =       105.25258759
  Ewald energy   TEWEN  =    103278.95197266
  -Hartree energ DENC   =   -109527.53342218
  -exchange      EXHF   =         0.00000000
  -V(xc)+E(xc)   XCENC  =        -5.49377395
  PAW double counting   =     10104.97619448    -9758.16017448
  entropy T*S    EENTRO =         0.00000000
  eigenvalues    EBANDS =     -1526.85610915
  atomic energy  EATOM  =      7251.88155071
  Solvation  Ediel_sol  =         0.00000000
  ---------------------------------------------------
  free energy    TOTEN  =       -76.98117432 eV

  energy without entropy =      -76.98117432  energy(sigma->0) =      -76.98117432


--------------------------------------------------------------------------------------------------------




----------------------------------------- Iteration    1(   9)  ---------------------------------------


    POTLOK:  cpu time    0.0260: real time    0.0272
    SETDIJ:  cpu time    0.0060: real time    0.0057
     EDDAV:  cpu time    4.6053: real time    4.6103
 BZINTS: Fermi energy: -0.454588; 78.000000 electrons
         Band energy:***********;  BLOECHL correction:  0.000000
       DOS:  cpu time    0.0040: real time    0.0035
    CHARGE:  cpu time    0.1540: real time    0.1544
    MIXING:  cpu time    0.0010: real time    0.0010
    --------------------------------------------
      LOOP:  cpu time    4.7973: real time    4.8045

 eigenvalue-minimisations  :  6048
 total energy-change (2. order) :-0.1913278E-02  (-0.3834407E-01)
 number of electron      78.0000009 magnetization 
 augmentation part       -9.8460386 magnetization 

 Broyden mixing:
  rms(total) = 0.22397E+00    rms(broyden)= 0.22396E+00
  rms(prec ) = 0.22406E+00
  weight for this iteration     100.00

 eigenvalues of (default mixing * dielectric matrix)
  average eigenvalue GAMMA=   1.2524
  1.8613  1.8613  0.7604  0.5265

 Free energy of the ion-electron system (eV)
  ---------------------------------------------------
  alpha Z        PSCENC =       105.25258759
  Ewald energy   TEWEN  =    103278.95197266
  -Hartree energ DENC   =   -109538.14519607
  -exchange      EXHF   =         0.00000000
  -V(xc)+E(xc)   XCENC  =        -5.39491114
  PAW double counting   =     10032.60416032    -9684.87464854
  entropy T*S    EENTRO =         0.00000000
  eigenvalues    EBANDS =     -1517.25860313
  atomic energy  EATOM  =      7251.88155071
  Solvation  Ediel_sol  =         0.00000000
  ---------------------------------------------------
  free energy    TOTEN  =       -76.98308760 eV

  energy without entropy =      -76.98308760  energy(sigma->0) =      -76.98308760


--------------------------------------------------------------------------------------------------------




----------------------------------------- Iteration    1(  10)  ---------------------------------------


    POTLOK:  cpu time    0.0270: real time    0.0272
    SETDIJ:  cpu time    0.0050: real time    0.0057
     EDDAV:  cpu time    4.5603: real time    4.5628
 BZINTS: Fermi energy: -0.435608; 78.000000 electrons
         Band energy:***********;  BLOECHL correction:  0.000000
       DOS:  cpu time    0.0040: real time    0.0035
    CHARGE:  cpu time    0.1720: real time    0.1724
    MIXING:  cpu time    0.0010: real time    0.0011
    --------------------------------------------
      LOOP:  cpu time    4.7703: real time    4.7751

 eigenvalue-minimisations  :  6216
 total energy-change (2. order) :-0.1028410E-02  (-0.1498856E-02)
 number of electron      78.0000009 magnetization 
 augmentation part       -9.8517242 magnetization 

 Broyden mixing:
  rms(total) = 0.50352E-01    rms(broyden)= 0.50351E-01
  rms(prec ) = 0.50626E-01
  weight for this iteration     100.00

 eigenvalues of (default mixing * dielectric matrix)
  average eigenvalue GAMMA=   1.4165
  2.2855  2.0197  1.3219  0.7276  0.7276

 Free energy of the ion-electron system (eV)
  ---------------------------------------------------
  alpha Z        PSCENC =       105.25258759
  Ewald energy   TEWEN  =    103278.95197266
  -Hartree energ DENC   =   -109540.34958808
  -exchange      EXHF   =         0.00000000
  -V(xc)+E(xc)   XCENC  =        -5.36619003
  PAW double counting   =      9940.39853393    -9592.47687673
  entropy T*S    EENTRO =         0.00000000
  eigenvalues    EBANDS =     -1515.27610605
  atomic energy  EATOM  =      7251.88155071
  Solvation  Ediel_sol  =         0.00000000
  ---------------------------------------------------
  free energy    TOTEN  =       -76.98411601 eV

  energy without entropy =      -76.98411601  energy(sigma->0) =      -76.98411601


--------------------------------------------------------------------------------------------------------




----------------------------------------- Iteration    1(  11)  ---------------------------------------


    POTLOK:  cpu time    0.0310: real time    0.0313
    SETDIJ:  cpu time    0.0060: real time    0.0058
     EDDAV:  cpu time    4.7593: real time    4.7656
 BZINTS: Fermi energy: -0.384883; 78.000000 electrons
         Band energy:***********;  BLOECHL correction:  0.000000
       DOS:  cpu time    0.0040: real time    0.0049
    CHARGE:  cpu time    0.1620: real time    0.1620
    MIXING:  cpu time    0.0020: real time    0.0011
    --------------------------------------------
      LOOP:  cpu time    4.9652: real time    4.9743

 eigenvalue-minimisations  :  6048
 total energy-change (2. order) : 0.1216560E-02  (-0.6001856E-03)
 number of electron      78.0000009 magnetization 
 augmentation part       -9.8473724 magnetization 

 Broyden mixing:
  rms(total) = 0.46074E-01    rms(broyden)= 0.46073E-01
  rms(prec ) = 0.46111E-01
  weight for this iteration     100.00

 eigenvalues of (default mixing * dielectric matrix)
  average eigenvalue GAMMA=   1.3828
  2.3182  2.2455  1.1708  1.1708  0.7288  0.6624

 Free energy of the ion-electron system (eV)
  ---------------------------------------------------
  alpha Z        PSCENC =       105.25258759
  Ewald energy   TEWEN  =    103278.95197266
  -Hartree energ DENC   =   -109544.88912424
  -exchange      EXHF   =         0.00000000
  -V(xc)+E(xc)   XCENC  =        -5.35180164
  PAW double counting   =      9909.25979146    -9561.04134677
  entropy T*S    EENTRO =         0.00000000
  eigenvalues    EBANDS =     -1511.04652920
  atomic energy  EATOM  =      7251.88155071
  Solvation  Ediel_sol  =         0.00000000
  ---------------------------------------------------
  free energy    TOTEN  =       -76.98289945 eV

  energy without entropy =      -76.98289945  energy(sigma->0) =      -76.98289945


--------------------------------------------------------------------------------------------------------




----------------------------------------- Iteration    1(  12)  ---------------------------------------


    POTLOK:  cpu time    0.0400: real time    0.0401
    SETDIJ:  cpu time    0.0060: real time    0.0062
     EDDAV:  cpu time    4.9912: real time    4.9966
 BZINTS: Fermi energy: -0.364936; 78.000000 electrons
         Band energy:***********;  BLOECHL correction:  0.000000
       DOS:  cpu time    0.0030: real time    0.0034
    CHARGE:  cpu time    0.1610: real time    0.1603
    MIXING:  cpu time    0.0010: real time    0.0011
    --------------------------------------------
      LOOP:  cpu time    5.2022: real time    5.2103

 eigenvalue-minimisations  :  6412
 total energy-change (2. order) : 0.2330049E-04  (-0.6235155E-04)
 number of electron      78.0000009 magnetization 
 augmentation part       -9.8490450 magnetization 

 Broyden mixing:
  rms(total) = 0.17020E-01    rms(broyden)= 0.17020E-01
  rms(prec ) = 0.17069E-01
  weight for this iteration     100.00

 eigenvalues of (default mixing * dielectric matrix)
  average eigenvalue GAMMA=   1.3569
  2.4599  1.9891  1.4811  1.0556  1.0556  0.7284  0.7284

 Free energy of the ion-electron system (eV)
  ---------------------------------------------------
  alpha Z        PSCENC =       105.25258759
  Ewald energy   TEWEN  =    103278.95197266
  -Hartree energ DENC   =   -109546.66054154
  -exchange      EXHF   =         0.00000000
  -V(xc)+E(xc)   XCENC  =        -5.34238664
  PAW double counting   =      9886.61247676    -9538.36842346
  entropy T*S    EENTRO =         0.00000000
  eigenvalues    EBANDS =     -1509.31011222
  atomic energy  EATOM  =      7251.88155071
  Solvation  Ediel_sol  =         0.00000000
  ---------------------------------------------------
  free energy    TOTEN  =       -76.98287615 eV

  energy without entropy =      -76.98287615  energy(sigma->0) =      -76.98287615


--------------------------------------------------------------------------------------------------------




----------------------------------------- Iteration    1(  13)  ---------------------------------------


    POTLOK:  cpu time    0.0300: real time    0.0384
    SETDIJ:  cpu time    0.0060: real time    0.0057
     EDDAV:  cpu time    4.7883: real time    4.8293
 BZINTS: Fermi energy: -0.354060; 78.000000 electrons
         Band energy:***********;  BLOECHL correction:  0.000000
       DOS:  cpu time    0.0040: real time    0.0035
    CHARGE:  cpu time    0.1660: real time    0.1657
    MIXING:  cpu time    0.0010: real time    0.0012
    --------------------------------------------
      LOOP:  cpu time    4.9952: real time    5.0501

 eigenvalue-minimisations  :  6160
 total energy-change (2. order) : 0.9164525E-05  (-0.5162122E-05)
 number of electron      78.0000009 magnetization 
 augmentation part       -9.8490701 magnetization 

 Broyden mixing:
  rms(total) = 0.15793E-01    rms(broyden)= 0.15793E-01
  rms(prec ) = 0.15831E-01
  weight for this iteration     100.00

 eigenvalues of (default mixing * dielectric matrix)
  average eigenvalue GAMMA=   1.4814
  2.9566  2.4056  1.8188  1.3922  0.9933  0.7129  0.7129  0.8588

 Free energy of the ion-electron system (eV)
  ---------------------------------------------------
  alpha Z        PSCENC =       105.25258759
  Ewald energy   TEWEN  =    103278.95197266
  -Hartree energ DENC   =   -109547.46313170
  -exchange      EXHF   =         0.00000000
  -V(xc)+E(xc)   XCENC  =        -5.34024336
  PAW double counting   =      9883.55098446    -9535.31355520
  entropy T*S    EENTRO =         0.00000000
  eigenvalues    EBANDS =     -1508.50303214
  atomic energy  EATOM  =      7251.88155071
  Solvation  Ediel_sol  =         0.00000000
  ---------------------------------------------------
  free energy    TOTEN  =       -76.98286698 eV

  energy without entropy =      -76.98286698  energy(sigma->0) =      -76.98286698


--------------------------------------------------------------------------------------------------------




----------------------------------------- Iteration    1(  14)  ---------------------------------------


    POTLOK:  cpu time    0.0290: real time    0.0299
    SETDIJ:  cpu time    0.0060: real time    0.0057
     EDDAV:  cpu time    4.3793: real time    4.3845
 BZINTS: Fermi energy: -0.328974; 78.000000 electrons
         Band energy:***********;  BLOECHL correction:  0.000000
       DOS:  cpu time    0.0030: real time    0.0035
    CHARGE:  cpu time    0.1540: real time    0.1540
    MIXING:  cpu time    0.0010: real time    0.0012
    --------------------------------------------
      LOOP:  cpu time    4.5733: real time    4.5814

 eigenvalue-minimisations  :  5992
 total energy-change (2. order) :-0.1911116E-04  (-0.8938724E-05)
 number of electron      78.0000009 magnetization 
 augmentation part       -9.8495281 magnetization 

 Broyden mixing:
  rms(total) = 0.44800E-02    rms(broyden)= 0.44800E-02
  rms(prec ) = 0.45260E-02
  weight for this iteration     100.00

 eigenvalues of (default mixing * dielectric matrix)
  average eigenvalue GAMMA=   1.4292
  2.7874  2.4433  1.8966  1.4671  0.7144  0.7144  0.8787  0.9807  0.9807

[...]
    --------------------------------------------
      LOOP:  cpu time    4.2154: real time    4.2199

 Broyden mixing:
  rms(total) = 0.33176E-05    rms(broyden)= 0.33168E-05
  rms(prec ) = 0.40682E-05
  weight for this iteration     100.00

 eigenvalues of (default mixing * dielectric matrix)
  average eigenvalue GAMMA=   2.3458
  8.1547  6.6844  3.9007  3.9007  2.6042  2.6042  1.9645  1.7985  1.7985  1.3971
  0.6764  1.1299  1.1299  0.9107  0.9107  0.9553  0.8277  0.8766

 Free energy of the ion-electron system (eV)
  ---------------------------------------------------
  -Hartree energ DENC   =        -0.42980165
  -V(xc)+E(xc)   XCENC  =         0.00591263
  PAW double counting   =         0.01468697       -0.01473876
  entropy T*S    EENTRO =         0.00000000
  eigenvalues    EBANDS =        -0.12625455
  ---------------------------------------------------
  free energy    TOTEN  =        -0.55019537 eV

  energy without entropy =       -0.55019537


----------------------------------------- Iteration    3(  21)  ---------------------------------------


   POT+DIJ:  cpu time    0.0690: real time    0.0705
    HAMIL1:  cpu time    0.7339: real time    0.7331
    LRDIAG:  cpu time    0.1180: real time    0.1185
    LRDIIS:  cpu time    3.1665: real time    3.1679
    LRDIAG:  cpu time    0.1140: real time    0.1137
    MIXING:  cpu time    0.0020: real time    0.0018
    --------------------------------------------
      LOOP:  cpu time    4.6033: real time    4.6083

 Broyden mixing:
  rms(total) = 0.31308E-05    rms(broyden)= 0.31302E-05
  rms(prec ) = 0.35297E-05
  weight for this iteration     100.00

 eigenvalues of (default mixing * dielectric matrix)
  average eigenvalue GAMMA=   2.3398
  8.1821  6.9608  4.1404  4.1404  2.7442  2.7442  2.0151  2.0151  1.6529  1.5149
  0.6764  1.1135  1.1135  0.9104  0.9104  0.8280  0.8703  0.9619  0.9619

 Free energy of the ion-electron system (eV)
  ---------------------------------------------------
  -Hartree energ DENC   =        -0.42980682
  -V(xc)+E(xc)   XCENC  =         0.00591271
  PAW double counting   =         0.01468179       -0.01473354
  entropy T*S    EENTRO =         0.00000000
  eigenvalues    EBANDS =        -0.12624430
  ---------------------------------------------------
  free energy    TOTEN  =        -0.55019016 eV

  energy without entropy =       -0.55019016


----------------------------------------- Iteration    3(  22)  ---------------------------------------


   POT+DIJ:  cpu time    0.0700: real time    0.0707
    HAMIL1:  cpu time    0.7269: real time    0.7284
    LRDIAG:  cpu time    0.1180: real time    0.1185
    LRDIIS:  cpu time    2.6676: real time    2.6678
    LRDIAG:  cpu time    0.1140: real time    0.1137
    MIXING:  cpu time    0.0020: real time    0.0017
    --------------------------------------------
      LOOP:  cpu time    4.0994: real time    4.1040

 Broyden mixing:
  rms(total) = 0.15006E-05    rms(broyden)= 0.15005E-05
  rms(prec ) = 0.18311E-05
  weight for this iteration     100.00

 eigenvalues of (default mixing * dielectric matrix)
  average eigenvalue GAMMA=   2.3459
  8.0898  7.1982  4.3211  4.3211  2.8933  2.8933  2.0967  2.0967  1.5996  1.5996
  1.3229  0.6764  1.1504  1.1504  0.9106  0.9106  0.8277  0.8773  1.0213  0.9606

 Free energy of the ion-electron system (eV)
  ---------------------------------------------------
  -Hartree energ DENC   =        -0.42980497
  -V(xc)+E(xc)   XCENC  =         0.00591253
  PAW double counting   =         0.01468456       -0.01473633
  entropy T*S    EENTRO =         0.00000000
  eigenvalues    EBANDS =        -0.12623446
  ---------------------------------------------------
  free energy    TOTEN  =        -0.55017867 eV

  energy without entropy =       -0.55017867


----------------------------------------- Iteration    3(  23)  ---------------------------------------


   POT+DIJ:  cpu time    0.0700: real time    0.0709
    HAMIL1:  cpu time    0.7279: real time    0.7279
    LRDIAG:  cpu time    0.1230: real time    0.1231
    LRDIIS:  cpu time    2.5946: real time    2.5956
    LRDIAG:  cpu time    0.1140: real time    0.1138
    MIXING:  cpu time    0.0020: real time    0.0018
    --------------------------------------------
      LOOP:  cpu time    4.0324: real time    4.0370

 Broyden mixing:
  rms(total) = 0.12490E-05    rms(broyden)= 0.12487E-05
  rms(prec ) = 0.13998E-05
  weight for this iteration     100.00

 eigenvalues of (default mixing * dielectric matrix)
  average eigenvalue GAMMA=   2.3988
  7.8430  7.8430  4.8071  4.8071  3.1486  3.1486  2.2759  2.2759  1.7431  1.7431
  1.4886  0.6764  1.1259  1.1259  0.9110  0.9110  0.9801  0.9801  0.8792  0.8303
  0.8303

 Free energy of the ion-electron system (eV)
  ---------------------------------------------------
  -Hartree energ DENC   =        -0.42980354
  -V(xc)+E(xc)   XCENC  =         0.00591235
  PAW double counting   =         0.01468634       -0.01473812
  entropy T*S    EENTRO =         0.00000000
  eigenvalues    EBANDS =        -0.12623198
  ---------------------------------------------------
  free energy    TOTEN  =        -0.55017496 eV

  energy without entropy =       -0.55017496


----------------------------------------- Iteration    3(  24)  ---------------------------------------


   POT+DIJ:  cpu time    0.0710: real time    0.0710
    HAMIL1:  cpu time    0.7259: real time    0.7263
    LRDIAG:  cpu time    0.1180: real time    0.1185
    LRDIIS:  cpu time    2.1087: real time    2.1087
    LRDIAG:  cpu time    0.1140: real time    0.1139
    MIXING:  cpu time    0.0010: real time    0.0019
    --------------------------------------------
      LOOP:  cpu time    3.5315: real time    3.5346

 Broyden mixing:
  rms(total) = 0.65244E-06    rms(broyden)= 0.65242E-06
  rms(prec ) = 0.70949E-06
  weight for this iteration     100.00

 eigenvalues of (default mixing * dielectric matrix)
  average eigenvalue GAMMA=   2.4305
  8.1617  8.1617  5.6441  4.6799  3.1906  3.1906  2.3542  2.3542  1.7695  1.7695
  1.4771  1.3706  0.6764  1.1531  1.1531  0.9105  0.9105  1.0429  0.9890  0.8758
  0.8278  0.8083

 Free energy of the ion-electron system (eV)
  ---------------------------------------------------
  -Hartree energ DENC   =        -0.42980431
  -V(xc)+E(xc)   XCENC  =         0.00591230
  PAW double counting   =         0.01468543       -0.01473721
  entropy T*S    EENTRO =         0.00000000
  eigenvalues    EBANDS =        -0.12623449
  ---------------------------------------------------
  free energy    TOTEN  =        -0.55017828 eV

  energy without entropy =       -0.55017828


------------------------ aborting loop because EDIFF is reached ----------------------------------------


 change of polarisation eV/A/(eV/A) component  3 :    -0.000    -0.000     1.080
 dielectric tensor                  component  3 :    -0.000    -0.000     1.445


--------------------------------------------------------------------------------------------------------


    FORLOC:  cpu time    0.0030: real time    0.0027
    FORNL :  cpu time    0.6409: real time    0.6408
    STRESS:  cpu time    2.3666: real time    2.3653
    FORCOR:  cpu time    0.0280: real time    0.0283
    OFIELD:  cpu time    0.0000: real time    0.0002

  Hirshfeld charges:
            ion         q(e)     
   ------------------------------
      1     W           0.351
      2     W           0.350
      3     W           0.351
      4     S          -0.175
      5     S          -0.176
      6     S          -0.175
      7     S          -0.175
      8     S          -0.176
      9     S          -0.175

  Tkatchenko/Scheffler method for vdW energy calculation
  ---------------------------------------------------------------------------------------------

  Parameters of vdW forcefield:
            C6ts              R0ts           ALPHAts        RELVOL
            (au)              (au)            (au)                
   ---------------------------------------------------------------
   W         873.713          4.102         72.113          1.015
   W         882.165          4.109         72.461          1.020
   W         873.714          4.102         72.113          1.015
   S         135.468          3.862         19.707          1.005
   S         132.618          3.848         19.499          0.995
   S         135.465          3.862         19.707          1.005
   S         135.465          3.862         19.707          1.005
   S         132.618          3.848         19.499          0.995
   S         135.468          3.862         19.707          1.005
  Edisp (eV):   -2.35931
    FORVDW:  cpu time    0.3609: real time    0.3612
    FORLOC:  cpu time    0.0020: real time    0.0027
    FORNL :  cpu time    0.6409: real time    0.6408
    STRESS:  cpu time    2.3666: real time    2.3666
    FORCOR:  cpu time    0.0280: real time    0.0282
    OFIELD:  cpu time    0.0000: real time    0.0002

  Hirshfeld charges:
            ion         q(e)     
   ------------------------------
      1     W           0.351
      2     W           0.350
      3     W           0.351
      4     S          -0.175
      5     S          -0.176
      6     S          -0.175
      7     S          -0.175
      8     S          -0.176
      9     S          -0.175

  Tkatchenko/Scheffler method for vdW energy calculation
  ---------------------------------------------------------------------------------------------

  Parameters of vdW forcefield:
            C6ts              R0ts           ALPHAts        RELVOL
            (au)              (au)            (au)                
   ---------------------------------------------------------------
   W         873.714          4.102         72.113          1.015
   W         882.165          4.109         72.461          1.020
   W         873.713          4.102         72.113          1.015
   S         135.468          3.862         19.707          1.005
   S         132.618          3.848         19.499          0.995
   S         135.465          3.862         19.707          1.005
   S         135.465          3.862         19.707          1.005
   S         132.618          3.848         19.499          0.995
   S         135.468          3.862         19.707          1.005
  Edisp (eV):   -2.35931
    FORVDW:  cpu time    0.3619: real time    0.3615
    FORNLD:  cpu time    1.9207: real time    1.9225

 PIEZOELECTRIC TENSOR FIELD DIRECTION 3  (e Angst)
 -----------------------------------------------------------------------------
     0.00002 -0.00000 -0.00000           (  0.00000  0.00000 -0.00000)
    -0.00000  0.00002 -0.00000           (  0.00000  0.00000 -0.00000)
    -0.00000  0.00000 -0.00004           ( -0.00000 -0.00000 -0.00000)

 PIEZOELECTRIC TENSOR FIELD DIRECTION 3  (C/m^2)
 -----------------------------------------------------------------------------
     0.00000 -0.00000 -0.00000
    -0.00000  0.00000 -0.00000
    -0.00000  0.00000 -0.00000


      POSITION         DIRECTION 3           BORN EFFECTIVE CHARGE    (rigid.aug.   ionic)
 -----------------------------------------------------------------------------------------
     -0.00000      0.91970     18.85000     0.00000  0.00000-12.82826 (  1.96478 14.00000)
      1.59297      1.83941     25.00000     0.00000 -0.00000 -0.54012 (  1.96472 14.00000)
     -0.00000      0.91970     31.15000     0.00000 -0.00000-12.82825 (  1.96478 14.00000)
      1.59297      1.83941     20.42280     0.00000 -0.00000 -0.21991 (  0.65943  6.00000)
      1.59297      1.83941     17.27720     0.00000 -0.00000  0.52354 (  0.65870  6.00000)
     -0.00000      0.91970     26.57280    -0.00000 -0.00000  0.07100 (  0.65945  6.00000)
     -0.00000      0.91970     23.42720     0.00000  0.00000  0.07100 (  0.65945  6.00000)
      1.59297      1.83941     32.72280     0.00000 -0.00000  0.52354 (  0.65870  6.00000)
      1.59297      1.83941     29.57720     0.00000 -0.00000 -0.21991 (  0.65943  6.00000)
 -----------------------------------------------------------------------------------------
    total drift (improves with k-points):   0.00000 -0.00000-25.44737




--------------------------------------------------------------------------------------------------------


  LATTYP: Found a hexagonal cell.
 ALAT       =     3.1859459497
 C/A-ratio  =    15.6939260082
  
  Lattice vectors:
  
 A1 = (   3.1859459497,   0.0000000000,   0.0000000000)
 A2 = (  -1.5929729748,   2.7591101275,   0.0000000000)
 A3 = (   0.0000000000,   0.0000000000,  50.0000000000)


Analysis of symmetry for initial positions (statically):
=====================================================================
 Subroutine PRICEL returns:
 Original cell was already a primitive cell.
 

 Routine SETGRP: Setting up the symmetry group for a 
 hexagonal supercell.


 Subroutine GETGRP returns: Found 12 space group operations
 (whereof  4 operations were pure point group operations)
 out of a pool of 24 trial point group operations.


The static configuration has the point symmetry C_2v.
 The point group associated with its full space group is D_3h.


Analysis of symmetry for dynamics (positions and initial velocities):
=====================================================================
 Subroutine PRICEL returns:
 Original cell was already a primitive cell.
 

 Routine SETGRP: Setting up the symmetry group for a 
 hexagonal supercell.


 Subroutine GETGRP returns: Found 12 space group operations
 (whereof  4 operations were pure point group operations)
 out of a pool of 24 trial point group operations.


The dynamic configuration has the point symmetry C_2v.
 The point group associated with its full space group is D_3h.


 Subroutine INISYM returns: Found 12 space group operations
 (whereof  4 operations are pure point group operations),
 and found     1 'primitive' translations



 MACROSCOPIC STATIC DIELECTRIC TENSOR (including local field effects in DFT)
 ------------------------------------------------------
           5.791922     0.000000    -0.000000
           0.000000     5.791922     0.000000
           0.000000     0.000000     1.444821
 ------------------------------------------------------



--------------------------------------------------------------------------------------------------------


  LATTYP: Found a hexagonal cell.
 ALAT       =     3.1859459497
 C/A-ratio  =    15.6939260082
  
  Lattice vectors:
  
 A1 = (   3.1859459497,   0.0000000000,   0.0000000000)
 A2 = (  -1.5929729748,   2.7591101275,   0.0000000000)
 A3 = (   0.0000000000,   0.0000000000,  50.0000000000)


Analysis of symmetry for initial positions (statically):
=====================================================================
 Subroutine PRICEL returns:
 Original cell was already a primitive cell.
 

 Routine SETGRP: Setting up the symmetry group for a 
 hexagonal supercell.


 Subroutine GETGRP returns: Found 12 space group operations
 (whereof  4 operations were pure point group operations)
 out of a pool of 24 trial point group operations.


The static configuration has the point symmetry C_2v.
 The point group associated with its full space group is D_3h.


Analysis of symmetry for dynamics (positions and initial velocities):
=====================================================================
 Subroutine PRICEL returns:
 Original cell was already a primitive cell.
 

 Routine SETGRP: Setting up the symmetry group for a 
 hexagonal supercell.


 Subroutine GETGRP returns: Found 12 space group operations
 (whereof  4 operations were pure point group operations)
 out of a pool of 24 trial point group operations.


The dynamic configuration has the point symmetry C_2v.
 The point group associated with its full space group is D_3h.


 Subroutine INISYM returns: Found 12 space group operations
 (whereof  4 operations are pure point group operations),
 and found     1 'primitive' translations



--------------------------------------------------------------------------------------------------------




 MACROSCOPIC STATIC DIELECTRIC TENSOR (including local field effects in DFT)
 ------------------------------------------------------
           5.791922     0.000000    -0.000000
           0.000000     5.791922     0.000000
           0.000000     0.000000     1.444821
 ------------------------------------------------------


 PIEZOELECTRIC TENSOR  for field in x, y, z        (e  Angst)
          XX          YY          ZZ          XY          YZ          ZX
  --------------------------------------------------------------------------------
  x    -0.00697     0.00579    -0.00017    -1.09844     0.00000     0.00000
  y    -1.10601     1.10871     0.00090     0.00000     0.00000     0.00000
  z     0.00002     0.00002    -0.00004    -0.00000     0.00000    -0.00000

 PIEZOELECTRIC TENSOR  for field in x, y, z        (C/m^2)
          XX          YY          ZZ          XY          YZ          ZX
  --------------------------------------------------------------------------------
  x     0.00000     0.00000    -0.00000    -0.04020     0.00000     0.00000
  y    -0.04020     0.04020     0.00000     0.00000     0.00000     0.00000
  z     0.00000     0.00000     0.00000     0.00000     0.00000     0.00000
 
 BORN EFFECTIVE CHARGES (in e, cummulative output)
 -------------------------------------------------
 ion    1
    1    -0.43665    -0.00078     0.00001
    2     0.00000    -0.43750     0.00001
    3     0.00000     0.00000   -12.82826
 ion    2
    1    -0.44407     0.00079     0.00000
    2     0.00000    -0.44322     0.00000
    3     0.00000    -0.00000    -0.54012
 ion    3
    1    -0.43665    -0.00078    -0.00001
    2     0.00000    -0.43750    -0.00001
    3     0.00000    -0.00000   -12.82825
 ion    4
    1     0.24061    -0.00026    -0.00017
    2    -0.00000     0.24108     0.00044
    3     0.00000    -0.00000    -0.21991
 ion    5
    1     0.25932    -0.00027     0.00011
    2    -0.00000     0.25975    -0.00031
    3     0.00000    -0.00000     0.52354
 ion    6
    1     0.25332     0.00026    -0.00018
    2     0.00000     0.25284     0.00045
    3    -0.00000    -0.00000     0.07100
 ion    7
    1     0.25332     0.00026     0.00018
    2     0.00000     0.25284    -0.00045
    3     0.00000     0.00000     0.07100
 ion    8
    1     0.25932    -0.00027    -0.00011
    2    -0.00000     0.25975     0.00031
    3     0.00000    -0.00000     0.52354
 ion    9
    1     0.24061    -0.00026     0.00017
    2    -0.00000     0.24108    -0.00044
    3     0.00000    -0.00000    -0.21991


--------------------------------------------------------------------------------------------------------


 writing wavefunctions
     LOOP+:  cpu time 1042.7965: real time 1044.7717
    4ORBIT:  cpu time    0.0000: real time    0.0000
 BZINTS: Fermi energy: -0.283304; 78.000000 electrons
         Band energy:***********;  BLOECHL correction:  0.000000

 total amount of memory used by VASP on root node   135322. kBytes
========================================================================

   base      :      30000. kBytes
   nonl-proj :      88741. kBytes
   fftplans  :       1943. kBytes
   grid      :       7351. kBytes
   one-center:        292. kBytes
   wavefun   :       6995. kBytes
 
  
  
 General timing and accounting informations for this job:
 ========================================================
  
                  Total CPU time used (sec):     1045.066
                            User time (sec):     1020.663
                          System time (sec):       24.403
                         Elapsed time (sec):     1048.615
  
                   Maximum memory used (kb):      634184.
                   Average memory used (kb):           0.
  
                          Minor page faults:      6161679
                          Major page faults:           10
                 Voluntary context switches:         5012
