   3   3   0   0
  0.1816343E+03  0.3547392E-09  0.3547392E-09  0.5000000E-08  0.5000000E-15
  1.000000000000000E-004
  CAR 
 unknown system                          
     10.59513045    -67.35131986  301     -3.04549835      1.00000000
    -67.351  0.0000E+00  0.0000E+00
    -67.091  0.0000E+00  0.0000E+00
    -66.832  0.0000E+00  0.0000E+00
    -66.572  0.0000E+00  0.0000E+00
    -66.312  0.0000E+00  0.0000E+00
    -66.052  0.0000E+00  0.0000E+00
    -65.792  0.0000E+00  0.0000E+00
    -65.533  0.0000E+00  0.0000E+00
    -65.273  0.0000E+00  0.0000E+00
    -65.013  0.0000E+00  0.0000E+00
    -64.753  0.0000E+00  0.0000E+00
    -64.493  0.0000E+00  0.0000E+00
    -64.233  0.0000E+00  0.0000E+00
    -63.974  0.0000E+00  0.0000E+00
    -63.714  0.0000E+00  0.2000E+01
    -63.454  0.0000E+00  0.2000E+01
    -63.194  0.0000E+00  0.2000E+01
    -62.934  0.0000E+00  0.2000E+01
    -62.675  0.0000E+00  0.2000E+01
    -62.415  0.0000E+00  0.2000E+01
    -62.155  0.0000E+00  0.2000E+01
    -61.895  0.0000E+00  0.2000E+01
    -61.635  0.0000E+00  0.2000E+01
    -61.375  0.0000E+00  0.2000E+01
    -61.116  0.0000E+00  0.2000E+01
    -60.856  0.0000E+00  0.2000E+01
    -60.596  0.0000E+00  0.2000E+01
    -60.336  0.0000E+00  0.2000E+01
    -60.076  0.0000E+00  0.2000E+01
    -59.816  0.0000E+00  0.2000E+01
    -59.557  0.0000E+00  0.2000E+01
    -59.297  0.0000E+00  0.2000E+01
    -59.037  0.0000E+00  0.2000E+01
    -58.777  0.0000E+00  0.2000E+01
    -58.517  0.0000E+00  0.2000E+01
    -58.258  0.0000E+00  0.2000E+01
    -57.998  0.0000E+00  0.2000E+01
    -57.738  0.0000E+00  0.2000E+01
    -57.478  0.0000E+00  0.2000E+01
    -57.218  0.0000E+00  0.2000E+01
    -56.958  0.0000E+00  0.2000E+01
    -56.699  0.0000E+00  0.2000E+01
    -56.439  0.0000E+00  0.2000E+01
    -56.179  0.0000E+00  0.2000E+01
    -55.919  0.0000E+00  0.2000E+01
    -55.659  0.0000E+00  0.2000E+01
    -55.400  0.0000E+00  0.2000E+01
    -55.140  0.0000E+00  0.2000E+01
    -54.880  0.0000E+00  0.2000E+01
    -54.620  0.0000E+00  0.2000E+01
    -54.360  0.0000E+00  0.2000E+01
    -54.100  0.0000E+00  0.2000E+01
    -53.841  0.0000E+00  0.2000E+01
    -53.581  0.0000E+00  0.2000E+01
    -53.321  0.0000E+00  0.2000E+01
    -53.061  0.0000E+00  0.2000E+01
    -52.801  0.0000E+00  0.2000E+01
    -52.541  0.0000E+00  0.2000E+01
    -52.282  0.0000E+00  0.2000E+01
    -52.022  0.0000E+00  0.2000E+01
    -51.762  0.0000E+00  0.2000E+01
    -51.502  0.0000E+00  0.2000E+01
    -51.242  0.0000E+00  0.2000E+01
    -50.983  0.0000E+00  0.2000E+01
    -50.723  0.0000E+00  0.2000E+01
    -50.463  0.0000E+00  0.2000E+01
    -50.203  0.0000E+00  0.2000E+01
    -49.943  0.0000E+00  0.2000E+01
    -49.683  0.0000E+00  0.2000E+01
    -49.424  0.0000E+00  0.2000E+01
    -49.164  0.0000E+00  0.2000E+01
    -48.904  0.0000E+00  0.2000E+01
    -48.644  0.0000E+00  0.2000E+01
    -48.384  0.0000E+00  0.2000E+01
    -48.125  0.0000E+00  0.2000E+01
    -47.865  0.0000E+00  0.2000E+01
    -47.605  0.0000E+00  0.2000E+01
    -47.345  0.0000E+00  0.2000E+01
    -47.085  0.0000E+00  0.2000E+01
    -46.825  0.0000E+00  0.2000E+01
    -46.566  0.0000E+00  0.2000E+01
    -46.306  0.0000E+00  0.2000E+01
    -46.046  0.0000E+00  0.2000E+01
    -45.786  0.0000E+00  0.2000E+01
    -45.526  0.0000E+00  0.2000E+01
    -45.266  0.0000E+00  0.2000E+01
    -45.007  0.0000E+00  0.2000E+01
    -44.747  0.0000E+00  0.2000E+01
    -44.487  0.0000E+00  0.2000E+01
    -44.227  0.0000E+00  0.2000E+01
    -43.967  0.0000E+00  0.2000E+01
    -43.708  0.0000E+00  0.2000E+01
    -43.448  0.0000E+00  0.2000E+01
    -43.188  0.0000E+00  0.2000E+01
    -42.928  0.0000E+00  0.2000E+01
    -42.668  0.0000E+00  0.2000E+01
    -42.408  0.0000E+00  0.2000E+01
    -42.149  0.0000E+00  0.2000E+01
    -41.889  0.0000E+00  0.2000E+01
    -41.629  0.0000E+00  0.2000E+01
    -41.369  0.0000E+00  0.2000E+01
    -41.109  0.0000E+00  0.2000E+01
    -40.850  0.0000E+00  0.2000E+01
    -40.590  0.0000E+00  0.2000E+01
    -40.330  0.0000E+00  0.2000E+01
    -40.070  0.0000E+00  0.2000E+01
    -39.810  0.0000E+00  0.2000E+01
    -39.550  0.0000E+00  0.2000E+01
    -39.291  0.0000E+00  0.2000E+01
    -39.031  0.0000E+00  0.2000E+01
    -38.771  0.0000E+00  0.2000E+01
    -38.511  0.0000E+00  0.2000E+01
    -38.251  0.0000E+00  0.2000E+01
    -37.991  0.0000E+00  0.2000E+01
    -37.732  0.0000E+00  0.8000E+01
    -37.472  0.0000E+00  0.8000E+01
    -37.212  0.0000E+00  0.8000E+01
    -36.952  0.0000E+00  0.8000E+01
    -36.692  0.0000E+00  0.8000E+01
    -36.433  0.0000E+00  0.8000E+01
    -36.173  0.0000E+00  0.8000E+01
    -35.913  0.0000E+00  0.8000E+01
    -35.653  0.0000E+00  0.8000E+01
    -35.393  0.0000E+00  0.8000E+01
    -35.133  0.0000E+00  0.8000E+01
    -34.874  0.0000E+00  0.8000E+01
    -34.614  0.0000E+00  0.8000E+01
    -34.354  0.0000E+00  0.8000E+01
    -34.094  0.0000E+00  0.8000E+01
    -33.834  0.0000E+00  0.8000E+01
    -33.575  0.0000E+00  0.8000E+01
    -33.315  0.0000E+00  0.8000E+01
    -33.055  0.0000E+00  0.8000E+01
    -32.795  0.0000E+00  0.8000E+01
    -32.535  0.0000E+00  0.8000E+01
    -32.275  0.0000E+00  0.8000E+01
    -32.016  0.0000E+00  0.8000E+01
    -31.756  0.0000E+00  0.8000E+01
    -31.496  0.0000E+00  0.8000E+01
    -31.236  0.0000E+00  0.8000E+01
    -30.976  0.0000E+00  0.8000E+01
    -30.716  0.0000E+00  0.8000E+01
    -30.457  0.0000E+00  0.8000E+01
    -30.197  0.0000E+00  0.8000E+01
    -29.937  0.0000E+00  0.8000E+01
    -29.677  0.0000E+00  0.8000E+01
    -29.417  0.0000E+00  0.8000E+01
    -29.158  0.0000E+00  0.8000E+01
    -28.898  0.0000E+00  0.8000E+01
    -28.638  0.0000E+00  0.8000E+01
    -28.378  0.0000E+00  0.8000E+01
    -28.118  0.0000E+00  0.8000E+01
    -27.858  0.0000E+00  0.8000E+01
    -27.599  0.0000E+00  0.8000E+01
    -27.339  0.0000E+00  0.8000E+01
    -27.079  0.0000E+00  0.8000E+01
    -26.819  0.0000E+00  0.8000E+01
    -26.559  0.0000E+00  0.8000E+01
    -26.300  0.0000E+00  0.8000E+01
    -26.040  0.0000E+00  0.8000E+01
    -25.780  0.0000E+00  0.8000E+01
    -25.520  0.0000E+00  0.8000E+01
    -25.260  0.0000E+00  0.8000E+01
    -25.000  0.0000E+00  0.8000E+01
    -24.741  0.0000E+00  0.8000E+01
    -24.481  0.0000E+00  0.8000E+01
    -24.221  0.0000E+00  0.8000E+01
    -23.961  0.0000E+00  0.8000E+01
    -23.701  0.0000E+00  0.8000E+01
    -23.441  0.0000E+00  0.8000E+01
    -23.182  0.0000E+00  0.8000E+01
    -22.922  0.0000E+00  0.8000E+01
    -22.662  0.0000E+00  0.8000E+01
    -22.402  0.0000E+00  0.8000E+01
    -22.142  0.0000E+00  0.8000E+01
    -21.883  0.0000E+00  0.8000E+01
    -21.623  0.0000E+00  0.8000E+01
    -21.363  0.0000E+00  0.8000E+01
    -21.103  0.0000E+00  0.8000E+01
    -20.843  0.0000E+00  0.8000E+01
    -20.583  0.0000E+00  0.8000E+01
    -20.324  0.0000E+00  0.8000E+01
    -20.064  0.0000E+00  0.8000E+01
    -19.804  0.0000E+00  0.8000E+01
    -19.544  0.0000E+00  0.8000E+01
    -19.284  0.0000E+00  0.8000E+01
    -19.025  0.0000E+00  0.8000E+01
    -18.765  0.0000E+00  0.8000E+01
    -18.505  0.0000E+00  0.8000E+01
    -18.245  0.0000E+00  0.8000E+01
    -17.985  0.0000E+00  0.8000E+01
    -17.725  0.0000E+00  0.8000E+01
    -17.466  0.0000E+00  0.8000E+01
    -17.206  0.0000E+00  0.8000E+01
    -16.946  0.0000E+00  0.8000E+01
    -16.686  0.0000E+00  0.8000E+01
    -16.426  0.0000E+00  0.8000E+01
    -16.166  0.0000E+00  0.8000E+01
    -15.907  0.0000E+00  0.8000E+01
    -15.647  0.6337E+00  0.8010E+01
    -15.387  0.5562E+00  0.8153E+01
    -15.127  0.5854E+00  0.8302E+01
    -14.867  0.6323E+00  0.8461E+01
    -14.608  0.1455E+01  0.8728E+01
    -14.348  0.1639E+01  0.9135E+01
    -14.088  0.1941E+01  0.9600E+01
    -13.828  0.2694E+01  0.1019E+02
    -13.568  0.3267E+01  0.1105E+02
    -13.308  0.2153E+01  0.1184E+02
    -13.049  0.0000E+00  0.1200E+02
    -12.789  0.0000E+00  0.1200E+02
    -12.529  0.0000E+00  0.1200E+02
    -12.269  0.0000E+00  0.1200E+02
    -12.009  0.0000E+00  0.1200E+02
    -11.750  0.0000E+00  0.1200E+02
    -11.490  0.0000E+00  0.1200E+02
    -11.230  0.0000E+00  0.1200E+02
    -10.970  0.0000E+00  0.1200E+02
    -10.710  0.0000E+00  0.1200E+02
    -10.450  0.0000E+00  0.1200E+02
    -10.191  0.0000E+00  0.1200E+02
     -9.931  0.0000E+00  0.1200E+02
     -9.671  0.0000E+00  0.1200E+02
     -9.411  0.0000E+00  0.1200E+02
     -9.151  0.0000E+00  0.1200E+02
     -8.891  0.0000E+00  0.1200E+02
     -8.632  0.0000E+00  0.1200E+02
     -8.372  0.8804E+00  0.1207E+02
     -8.112  0.9415E+00  0.1230E+02
     -7.852  0.1784E+01  0.1268E+02
     -7.592  0.6046E+01  0.1328E+02
     -7.333  0.3155E+01  0.1432E+02
     -7.073  0.8078E+00  0.1490E+02
     -6.813  0.7387E+00  0.1509E+02
     -6.553  0.2216E+01  0.1536E+02
     -6.293  0.3591E+01  0.1677E+02
     -6.033  0.1195E+01  0.1713E+02
     -5.774  0.2980E+01  0.1801E+02
     -5.514  0.2828E+01  0.1873E+02
     -5.254  0.2196E+01  0.1949E+02
     -4.994  0.1811E+01  0.2000E+02
     -4.734  0.3869E+01  0.2053E+02
     -4.475  0.2707E+01  0.2187E+02
     -4.215  0.2263E+01  0.2286E+02
     -3.955  0.2212E+01  0.2358E+02
     -3.695  0.3381E+01  0.2449E+02
     -3.435  0.3866E+01  0.2539E+02
     -3.175  0.1066E+01  0.2597E+02
     -2.916  0.0000E+00  0.2600E+02
     -2.656  0.0000E+00  0.2600E+02
     -2.396  0.0000E+00  0.2600E+02
     -2.136  0.0000E+00  0.2600E+02
     -1.876  0.7933E+00  0.2609E+02
     -1.616  0.2656E+01  0.2750E+02
     -1.357  0.5086E+01  0.2844E+02
     -1.097  0.4517E+01  0.2931E+02
     -0.837  0.3325E+01  0.3042E+02
     -0.577  0.1705E+01  0.3108E+02
     -0.317  0.1317E+01  0.3146E+02
     -0.058  0.1380E+01  0.3177E+02
      0.202  0.1356E+01  0.3219E+02
      0.462  0.4085E+01  0.3346E+02
      0.722  0.8352E+00  0.3387E+02
      0.982  0.5959E+00  0.3404E+02
      1.242  0.1018E+01  0.3423E+02
      1.501  0.1649E+01  0.3458E+02
      1.761  0.2537E+01  0.3504E+02
      2.021  0.2913E+01  0.3576E+02
      2.281  0.3774E+01  0.3661E+02
      2.541  0.3885E+01  0.3765E+02
      2.800  0.4170E+01  0.3870E+02
      3.060  0.5504E+01  0.4002E+02
      3.320  0.6691E+01  0.4161E+02
      3.580  0.6398E+01  0.4328E+02
      3.840  0.6136E+01  0.4512E+02
      4.100  0.6575E+01  0.4688E+02
      4.359  0.5167E+01  0.4854E+02
      4.619  0.5035E+01  0.4992E+02
      4.879  0.4439E+01  0.5114E+02
      5.139  0.4589E+01  0.5237E+02
      5.399  0.4393E+01  0.5357E+02
      5.659  0.2876E+01  0.5444E+02
      5.918  0.1799E+01  0.5508E+02
      6.178  0.1647E+01  0.5554E+02
      6.438  0.5463E+00  0.5585E+02
      6.698  0.2545E+00  0.5596E+02
      6.958  0.6432E-01  0.5600E+02
      7.217  0.0000E+00  0.5600E+02
      7.477  0.0000E+00  0.5600E+02
      7.737  0.0000E+00  0.5600E+02
      7.997  0.0000E+00  0.5600E+02
      8.257  0.0000E+00  0.5600E+02
      8.517  0.0000E+00  0.5600E+02
      8.776  0.0000E+00  0.5600E+02
      9.036  0.0000E+00  0.5600E+02
      9.296  0.0000E+00  0.5600E+02
      9.556  0.0000E+00  0.5600E+02
      9.816  0.0000E+00  0.5600E+02
     10.075  0.0000E+00  0.5600E+02
     10.335  0.0000E+00  0.5600E+02
     10.595  0.0000E+00  0.5600E+02
