       N       E                     dE             d eps       ncg     rms          rms(c)
DAV:   1     0.102013826349E+03    0.10201E+03   -0.98999E+03  3220   0.459E+02
DAV:   2    -0.124603593929E+02   -0.11447E+03   -0.11044E+03  2380   0.136E+02
DAV:   3    -0.211076314089E+02   -0.86473E+01   -0.86473E+01  3976   0.415E+01
DAV:   4    -0.211535467716E+02   -0.45915E-01   -0.45915E-01  2324   0.238E+00
DAV:   5    -0.211543629735E+02   -0.81620E-03   -0.81620E-03  3780   0.384E-01    0.881E+00
DAV:   6    -0.201549668948E+02    0.99940E+00   -0.46894E+01  3416   0.221E+01    0.645E+00
DAV:   7    -0.189506367039E+02    0.12043E+01   -0.17465E+01  3500   0.128E+01    0.274E+00
DAV:   8    -0.188441193345E+02    0.10652E+00   -0.18905E+00  3500   0.533E+00    0.104E+00
DAV:   9    -0.188145713910E+02    0.29548E-01   -0.23371E-01  3696   0.195E+00    0.162E-01
DAV:  10    -0.188138894575E+02    0.68193E-03   -0.52072E-03  3640   0.337E-01    0.474E-02
DAV:  11    -0.188137283169E+02    0.16114E-03   -0.97725E-04  3808   0.859E-02    0.301E-02
DAV:  12    -0.188136230674E+02    0.10525E-03   -0.15804E-04  3248   0.328E-02    0.146E-02
DAV:  13    -0.188136537531E+02   -0.30686E-04   -0.12102E-04  2884   0.303E-02    0.743E-03
DAV:  14    -0.188137457227E+02   -0.91970E-04   -0.29147E-05  2632   0.135E-02    0.465E-03
DAV:  15    -0.188138149692E+02   -0.69246E-04   -0.85876E-06  2632   0.983E-03    0.230E-03
DAV:  16    -0.188138888187E+02   -0.73850E-04   -0.51914E-06  2436   0.530E-03    0.929E-04
DAV:  17    -0.188139013702E+02   -0.12552E-04   -0.23611E-07  2828   0.142E-03    0.640E-04
DAV:  18    -0.188139211804E+02   -0.19810E-04   -0.45856E-07  2576   0.147E-03    0.270E-04
DAV:  19    -0.188139261338E+02   -0.49534E-05   -0.68302E-08  2884   0.557E-04    0.177E-04
DAV:  20    -0.188139294276E+02   -0.32938E-05   -0.67886E-08  2604   0.485E-04    0.755E-05
DAV:  21    -0.188139311174E+02   -0.16898E-05   -0.31806E-08  2856   0.316E-04    0.471E-05
DAV:  22    -0.188139313913E+02   -0.27387E-06   -0.13111E-09  2548   0.108E-04    0.252E-05
DAV:  23    -0.188139317477E+02   -0.35647E-06   -0.26382E-09  2744   0.146E-04    0.108E-05
DAV:  24    -0.188139318076E+02   -0.59837E-07   -0.43028E-11  2576   0.410E-05    0.765E-06
DAV:  25    -0.188139318734E+02   -0.65855E-07   -0.81174E-11  2436   0.587E-05    0.282E-06
DAV:  26    -0.188139318840E+02   -0.10600E-07    0.43184E-11  2856   0.208E-05    0.223E-06
DAV:  27    -0.188139318855E+02   -0.14711E-08    0.61553E-11  2884   0.812E-06
   1 F= -.19530244E+02 E0= -.19530244E+02  d E =0.000000E+00
 Linear response reoptimize wavefunctions
DAV:   1    -0.188139318861E+02    0.71631E+00    0.54270E-11  2660   0.603E-06
DAV:   2    -0.188139318861E+02    0.00000E+00    0.59684E-11  3220   0.626E-07
 Linear response G [H, r] |phi>, progress :
  Direction:   1
       N       E                     dE             d eps       ncg     rms
RMM:   1    -0.124725147492E+03   -0.12473E+03   -0.21081E+03  2373   0.541E+02
RMM:   2    -0.120701316712E+03    0.40238E+01   -0.38882E+01  4010   0.630E+01
RMM:   3    -0.130194827472E+03   -0.94935E+01   -0.56337E+01  4506   0.195E+01
RMM:   4    -0.131064964273E+03   -0.87014E+00   -0.17830E+00  4586   0.487E+00
RMM:   5    -0.131113856088E+03   -0.48892E-01   -0.21966E-01  4885   0.127E+00
RMM:   6    -0.131116263413E+03   -0.24073E-02   -0.19118E-02  4783   0.412E-01
RMM:   7    -0.131116450141E+03   -0.18673E-03   -0.43514E-03  4823   0.136E-01
RMM:   8    -0.131116526961E+03   -0.76820E-04   -0.45694E-04  4791   0.482E-02
RMM:   9    -0.131116556198E+03   -0.29237E-04   -0.26016E-04  4705   0.175E-02
RMM:  10    -0.131116553007E+03    0.31915E-05   -0.10738E-04  4549   0.654E-03
RMM:  11    -0.131116548195E+03    0.48116E-05   -0.43217E-05  4580   0.265E-03
RMM:  12    -0.131116545490E+03    0.27054E-05   -0.12053E-05  4427   0.112E-03
RMM:  13    -0.131116545413E+03    0.76952E-07   -0.10579E-05  4321   0.560E-04
RMM:  14    -0.131116544786E+03    0.62712E-06   -0.41101E-06  4101   0.341E-04
RMM:  15    -0.131116544658E+03    0.12824E-06   -0.27689E-06  3919   0.263E-04
RMM:  16    -0.131116544543E+03    0.11440E-06   -0.16041E-06  3745   0.234E-04
RMM:  17    -0.131116544463E+03    0.79832E-07   -0.79998E-07  3578   0.224E-04
RMM:  18    -0.131116544441E+03    0.22084E-07   -0.57673E-07  3456   0.221E-04
 Linear response G [H, r] |phi>, progress :
  Direction:   2
       N       E                     dE             d eps       ncg     rms
RMM:   1    -0.120218318571E+03   -0.12022E+03   -0.21582E+03  2515   0.539E+02
RMM:   2    -0.128483669518E+03   -0.82654E+01   -0.33082E+01  3966   0.626E+01
RMM:   3    -0.138497488236E+03   -0.10014E+02   -0.55439E+01  4510   0.196E+01
RMM:   4    -0.139454641208E+03   -0.95715E+00   -0.21800E+00  4623   0.510E+00
RMM:   5    -0.139511783119E+03   -0.57142E-01   -0.23524E-01  4827   0.139E+00
RMM:   6    -0.139516506780E+03   -0.47237E-02   -0.18190E-02  4703   0.447E-01
RMM:   7    -0.139517258226E+03   -0.75145E-03   -0.55769E-03  4834   0.150E-01
RMM:   8    -0.139517329594E+03   -0.71368E-04   -0.47452E-04  4718   0.505E-02
RMM:   9    -0.139517309117E+03    0.20477E-04    0.94374E-05  4673   0.182E-02
RMM:  10    -0.139517348398E+03   -0.39280E-04   -0.18547E-04  4494   0.631E-03
RMM:  11    -0.139517328514E+03    0.19884E-04    0.19603E-05  4554   0.241E-03
RMM:  12    -0.139517332592E+03   -0.40778E-05   -0.19824E-05  4427   0.955E-04
RMM:  13    -0.139517330591E+03    0.20005E-05    0.14296E-07  4286   0.468E-04
RMM:  14    -0.139517331078E+03   -0.48674E-06   -0.48080E-06  4025   0.286E-04
RMM:  15    -0.139517330685E+03    0.39326E-06   -0.90718E-07  3856   0.222E-04
RMM:  16    -0.139517330599E+03    0.85725E-07   -0.67547E-08  3691   0.202E-04
RMM:  17    -0.139517330609E+03   -0.10284E-07   -0.17380E-07  3508   0.193E-04
RMM:  18    -0.139517330592E+03    0.17739E-07    0.26343E-09  3359   0.192E-04
 Linear response G [H, r] |phi>, progress :
  Direction:   3
       N       E                     dE             d eps       ncg     rms
RMM:   1    -0.129128641016E+03   -0.12913E+03   -0.23069E+03  2682   0.528E+02
RMM:   2    -0.128858267389E+03    0.27037E+00   -0.46387E+01  4071   0.597E+01
RMM:   3    -0.136201689507E+03   -0.73434E+01   -0.40962E+01  4450   0.183E+01
RMM:   4    -0.137186861859E+03   -0.98517E+00   -0.16233E+00  4513   0.456E+00
RMM:   5    -0.137218064940E+03   -0.31203E-01   -0.15435E-01  4795   0.116E+00
RMM:   6    -0.137219750795E+03   -0.16859E-02   -0.13087E-02  4778   0.329E-01
RMM:   7    -0.137219891135E+03   -0.14034E-03   -0.10869E-03  4771   0.950E-02
RMM:   8    -0.137219906188E+03   -0.15053E-04   -0.11362E-04  4684   0.304E-02
RMM:   9    -0.137219907657E+03   -0.14690E-05   -0.17008E-05  4551   0.105E-02
RMM:  10    -0.137219907943E+03   -0.28561E-06   -0.33530E-06  4420   0.343E-03
RMM:  11    -0.137219907866E+03    0.76961E-07   -0.34768E-07  4447   0.126E-03
RMM:  12    -0.137219907896E+03   -0.29879E-07   -0.32003E-07  4304   0.510E-04
RMM:  13    -0.137219907873E+03    0.22399E-07   -0.19458E-08  4076   0.276E-04
RMM:  14    -0.137219907876E+03   -0.24003E-08   -0.29015E-08  3901   0.197E-04
 Linear response to external field (no local field effect), progress :
  Direction:   1
       N       E                     dE             d eps       ncg     rms          rms(c)
RMM:   1    -0.238683403782E+01   -0.23868E+01   -0.13966E+01  5049   0.680E+00
RMM:   2    -0.393858071804E+01   -0.15517E+01    0.29869E-01  4115   0.186E+00
RMM:   3    -0.399730902410E+01   -0.58728E-01   -0.33017E-02  4653   0.517E-01
RMM:   4    -0.399856797943E+01   -0.12590E-02   -0.21393E-03  4611   0.131E-01
RMM:   5    -0.399863281990E+01   -0.64840E-04   -0.23098E-04  4716   0.411E-02
RMM:   6    -0.399864235104E+01   -0.95311E-05   -0.26265E-05  4694   0.134E-02
RMM:   7    -0.399864309006E+01   -0.73903E-06   -0.35979E-06  4465   0.462E-03
RMM:   8    -0.399864323188E+01   -0.14182E-06   -0.58026E-07  4342   0.156E-03
RMM:   9    -0.399864324825E+01   -0.16369E-07   -0.10208E-07  4214   0.536E-04
RMM:  10    -0.399864324798E+01    0.26597E-09   -0.21564E-08  4170   0.192E-04
 Linear response to external field (no local field effect), progress :
  Direction:   2
       N       E                     dE             d eps       ncg     rms          rms(c)
RMM:   1    -0.263919740507E+01   -0.26392E+01   -0.15400E+01  5018   0.697E+00
RMM:   2    -0.416379353529E+01   -0.15246E+01    0.33975E-01  4092   0.191E+00
RMM:   3    -0.422730779934E+01   -0.63514E-01   -0.40720E-02  4648   0.533E-01
RMM:   4    -0.422860173046E+01   -0.12939E-02   -0.18883E-03  4591   0.134E-01
RMM:   5    -0.422868052638E+01   -0.78796E-04   -0.20919E-04  4731   0.429E-02
RMM:   6    -0.422869074014E+01   -0.10214E-04   -0.20666E-05  4697   0.139E-02
RMM:   7    -0.422869203797E+01   -0.12978E-05   -0.24810E-06  4503   0.481E-03
RMM:   8    -0.422869221223E+01   -0.17426E-06   -0.11977E-07  4307   0.160E-03
RMM:   9    -0.422869225567E+01   -0.43445E-07    0.44337E-08  4239   0.556E-04
RMM:  10    -0.422869226241E+01   -0.67313E-08    0.50324E-08  4167   0.206E-04
 Linear response to external field (no local field effect), progress :
  Direction:   3
       N       E                     dE             d eps       ncg     rms          rms(c)
RMM:   1    -0.153927176403E+01   -0.15393E+01   -0.67939E+00  5092   0.632E+00
RMM:   2    -0.190561948167E+01   -0.36635E+00   -0.69558E-02  3964   0.160E+00
RMM:   3    -0.191689791510E+01   -0.11278E-01   -0.15895E-02  4484   0.425E-01
RMM:   4    -0.191750315651E+01   -0.60524E-03   -0.11102E-03  4624   0.117E-01
RMM:   5    -0.191753304821E+01   -0.29892E-04   -0.10214E-04  4673   0.369E-02
RMM:   6    -0.191753674475E+01   -0.36965E-05   -0.13128E-05  4627   0.121E-02
RMM:   7    -0.191753708993E+01   -0.34518E-06   -0.83284E-07  4390   0.409E-03
RMM:   8    -0.191753715624E+01   -0.66315E-07    0.19011E-08  4175   0.140E-03
RMM:   9    -0.191753717780E+01   -0.21553E-07    0.20808E-08  4151   0.485E-04
RMM:  10    -0.191753718167E+01   -0.38758E-08    0.20896E-09  3985   0.173E-04
 Linear response to external field, progress :
  Direction:   1
       N       E                     dE             d eps       ncg     rms          rms(c)
RMM:   1    -0.252130192430E+01   -0.25213E+01   -0.14766E+01 22401   0.682E+00
RMM:   2    -0.405735045377E+01   -0.15360E+01    0.26108E-01 18209   0.186E+00    0.396E+00
RMM:   3    -0.398478610572E+01    0.72564E-01   -0.56305E-02 18361   0.194E+00    0.213E+00
RMM:   4    -0.409089284919E+01   -0.10611E+00   -0.78835E-02 18264   0.190E+00    0.343E-01
RMM:   5    -0.412564382036E+01   -0.34751E-01   -0.16316E-02 19129   0.579E-01    0.711E-02
RMM:   6    -0.412879031978E+01   -0.31465E-02    0.36702E-04 20557   0.144E-01    0.346E-02
RMM:   7    -0.412992799236E+01   -0.11377E-02    0.30442E-04 20508   0.544E-02    0.225E-02
RMM:   8    -0.413103844258E+01   -0.11105E-02   -0.44022E-04 19214   0.285E-02    0.623E-03
RMM:   9    -0.413114718720E+01   -0.10874E-03   -0.15111E-04 19896   0.116E-02    0.289E-03
RMM:  10    -0.413139580089E+01   -0.24861E-03    0.17708E-05 19674   0.531E-03    0.761E-04
RMM:  11    -0.413143040464E+01   -0.34604E-04    0.25327E-06 20784   0.167E-03    0.456E-04
RMM:  12    -0.413146835352E+01   -0.37949E-04   -0.16089E-06 19238   0.770E-04    0.130E-04
RMM:  13    -0.413146765129E+01    0.70224E-06   -0.18529E-06 20518   0.293E-04    0.462E-05
RMM:  14    -0.413146828158E+01   -0.63029E-06    0.19047E-08 20228   0.108E-04    0.121E-05
RMM:  15    -0.413146802608E+01    0.25550E-06    0.29937E-07 16452   0.356E-05    0.768E-06
 Linear response to external field, progress :
  Direction:   2
       N       E                     dE             d eps       ncg     rms          rms(c)
RMM:   1    -0.252720017510E+01   -0.25272E+01   -0.14825E+01 12403   0.682E+00
RMM:   2    -0.405156242929E+01   -0.15244E+01    0.31326E-01 10148   0.187E+00    0.396E+00
RMM:   3    -0.398867674327E+01    0.62886E-01   -0.95641E-02 10228   0.194E+00    0.213E+00
RMM:   4    -0.407735185511E+01   -0.88675E-01    0.56765E-02 10109   0.189E+00    0.340E-01
RMM:   5    -0.412600427951E+01   -0.48652E-01   -0.18550E-02 10688   0.574E-01    0.658E-02
RMM:   6    -0.412899575072E+01   -0.29915E-02   -0.24567E-03 11571   0.140E-01    0.368E-02
RMM:   7    -0.412969577205E+01   -0.70002E-03    0.49437E-04 11529   0.520E-02    0.225E-02
RMM:   8    -0.413095253305E+01   -0.12568E-02   -0.23301E-04 10600   0.287E-02    0.559E-03
RMM:   9    -0.413111688926E+01   -0.16436E-03    0.50005E-05 11249   0.105E-02    0.280E-03
RMM:  10    -0.413136628519E+01   -0.24940E-03   -0.23373E-05 10881   0.496E-03    0.830E-04
RMM:  11    -0.413140159912E+01   -0.35314E-04   -0.96910E-06 11446   0.186E-03    0.473E-04
RMM:  12    -0.413143448718E+01   -0.32888E-04    0.45115E-06 10896   0.753E-04    0.119E-04
RMM:  13    -0.413143436869E+01    0.11848E-06   -0.15121E-06 11400   0.272E-04    0.424E-05
RMM:  14    -0.413143516969E+01   -0.80100E-06   -0.66683E-07 11050   0.987E-05    0.130E-05
RMM:  15    -0.413143489062E+01    0.27907E-06    0.22410E-08  8799   0.337E-05    0.842E-06
 Linear response to external field, progress :
  Direction:   3
       N       E                     dE             d eps       ncg     rms          rms(c)
RMM:   1    -0.153927176403E+01   -0.15393E+01   -0.67939E+00  5092   0.632E+00
RMM:   2    -0.190561948167E+01   -0.36635E+00   -0.69558E-02  3964   0.160E+00    0.318E+00
RMM:   3    -0.466788115653E+00    0.14388E+01   -0.24962E+00  3940   0.324E+00    0.182E+00
RMM:   4    -0.255040793504E+00    0.21175E+00   -0.12128E-01  3870   0.110E+00    0.575E-01
RMM:   5    -0.227403620029E+00    0.27637E-01   -0.56221E-02  3834   0.721E-01    0.147E-01
RMM:   6    -0.224920892060E+00    0.24827E-02   -0.18313E-03  4124   0.194E-01    0.118E-01
RMM:   7    -0.223003464861E+00    0.19174E-02   -0.74381E-04  3588   0.116E-01    0.425E-02
RMM:   8    -0.222875654460E+00    0.12781E-03   -0.16110E-03  3637   0.891E-02    0.252E-02
RMM:   9    -0.222669590272E+00    0.20606E-03   -0.16565E-04  3657   0.454E-02    0.101E-02
RMM:  10    -0.222962026956E+00   -0.29244E-03   -0.24220E-04  3674   0.269E-02    0.748E-03
RMM:  11    -0.223205040853E+00   -0.24301E-03   -0.16330E-04  3701   0.212E-02    0.376E-03
RMM:  12    -0.223334494683E+00   -0.12945E-03   -0.20069E-04  3885   0.113E-02    0.205E-03
RMM:  13    -0.223348772643E+00   -0.14278E-04    0.82139E-05  4152   0.529E-03    0.147E-03
RMM:  14    -0.223380432779E+00   -0.31660E-04   -0.63166E-05  3823   0.488E-03    0.697E-04
RMM:  15    -0.223369050139E+00    0.11383E-04    0.36388E-05  3982   0.308E-03    0.538E-04
RMM:  16    -0.223362337631E+00    0.67125E-05   -0.12701E-05  3960   0.225E-03    0.183E-04
RMM:  17    -0.223354184606E+00    0.81530E-05    0.13120E-05  4161   0.121E-03    0.149E-04
RMM:  18    -0.223353488111E+00    0.69650E-06   -0.29243E-06  3929   0.125E-03    0.473E-05
RMM:  19    -0.223353971999E+00   -0.48389E-06    0.23854E-06  4138   0.471E-04    0.346E-05
RMM:  20    -0.223354211729E+00   -0.23973E-06   -0.51498E-07  4221   0.159E-04    0.156E-05
RMM:  21    -0.223354111456E+00    0.10027E-06    0.20889E-07  3858   0.107E-04    0.959E-06
