 vasp.5.4.1 24Jun15 (build Apr 13 2016 13:07:19) complex                        
  
 executed on           IFC91_ompi date 2019.09.14  00:37:14
 running on   28 total cores
 distrk:  each k-point on   28 cores,    1 groups
 distr:  one band on NCORES_PER_BAND=   1 cores,   28 groups


--------------------------------------------------------------------------------------------------------


 INCAR:
 POTCAR:    PAW_PBE Mo_sv_GW 05Dec2013            
 POTCAR:    PAW_PBE Te_GW 22Mar2012               

 ----------------------------------------------------------------------------- 
|                                                                             |
|           W    W    AA    RRRRR   N    N  II  N    N   GGGG   !!!           |
|           W    W   A  A   R    R  NN   N  II  NN   N  G    G  !!!           |
|           W    W  A    A  R    R  N N  N  II  N N  N  G       !!!           |
|           W WW W  AAAAAA  RRRRR   N  N N  II  N  N N  G  GGG   !            |
|           WW  WW  A    A  R   R   N   NN  II  N   NN  G    G                |
|           W    W  A    A  R    R  N    N  II  N    N   GGGG   !!!           |
|                                                                             |
|      For optimal performance we recommend to set                            |
|        NCORE= 4 - approx SQRT( number of cores)                             |
|      NCORE specifies how many cores store one orbital (NPAR=cpu/NCORE).     |
|      This setting can  greatly improve the performance of VASP for DFT.     |
|      The default, NPAR=number of cores might be grossly inefficient         |
|      on modern multi-core architectures or massively parallel machines.     |
|      Do your own testing !!!!                                               |
|      Unfortunately you need to use the default for GW and RPA calculations. |
|      (for HF NCORE is supported but not extensively tested yet)             |
|                                                                             |
 ----------------------------------------------------------------------------- 

 POTCAR:    PAW_PBE Mo_sv_GW 05Dec2013            
   VRHFIN =Mo: 4s4p5s4d                                                         
   LEXCH  = PE                                                                  
   EATOM  =  1861.5185 eV,  136.8178 Ry                                         
                                                                                
   TITEL  = PAW_PBE Mo_sv_GW 05Dec2013                                          
   LULTRA =        F    use ultrasoft PP ?                                      
   IUNSCR =        1    unscreen: 0-lin 1-nonlin 2-no                           
   RPACOR =    2.000    partial core radius                                     
   POMASS =   95.940; ZVAL   =   14.000    mass and valenz                      
   RCORE  =    2.100    outmost cutoff radius                                   
   RWIGS  =    2.100; RWIGS  =    1.111    wigner-seitz radius (au A)           
   ENMAX  =  344.914; ENMIN  =  258.686 eV                                      
   RCLOC  =    1.508    cutoff for local pot                                    
   LCOR   =        T    correct aug charges                                     
   LPAW   =        T    paw PP                                                  
   EAUG   =  964.741                                                            
   DEXC   =    0.000                                                            
   RMAX   =    2.149    core radius for proj-oper                               
   RAUG   =    1.300    factor for augmentation sphere                          
   RDEP   =    2.179    radius for radial grids                                 
   RDEPT  =    1.677    core radius for aug-charge                              
                                                                                
   Atomic configuration                                                         
   12 entries                                                                   
     n  l   j            E        occ.                                          
     1  0  0.50    -19816.9363   2.0000                                         
     2  0  0.50     -2796.7578   2.0000                                         
     2  1  1.50     -2499.7842   6.0000                                         
     3  0  0.50      -474.2095   2.0000                                         
     3  1  1.50      -376.9135   6.0000                                         
     3  2  2.50      -218.6898  10.0000                                         
     4  0  0.50       -62.1983   2.0000                                         
     4  0  0.50       -66.6685   0.0000                                         
     4  1  1.50       -36.4414   6.0000                                         
     4  1  1.50       -40.8175   0.0000                                         
     4  2  2.50        -2.3086   6.0000                                         
     4  3  2.50        -1.3606   0.0000                                         
   Description                                                                  
     l       E           TYP  RCUT    TYP  RCUT                                 
     0    -62.1983072     23  1.950                                             
     0     27.2116520     23  1.950                                             
     0    149.6640860     23  1.950                                             
     1    -36.4413666     23  1.800                                             
     1    -40.8174780     23  1.800                                             
     1     54.4233040     23  1.800                                             
     2     -2.3085597     23  2.000                                             
     2     -6.8029130     23  2.000                                             
     2    136.0582600     23  2.000                                             
     3     13.6058260     23  2.100                                             
     3     81.6349560     23  2.100                                             
  local pseudopotential read in
  partial core-charges read in
  partial kinetic energy density read in
  kinetic energy density of atom read in
  atomic valenz-charges read in
  non local Contribution for L=           0  read in
    real space projection operators read in
  non local Contribution for L=           0  read in
    real space projection operators read in
  non local Contribution for L=           0  read in
    real space projection operators read in
  non local Contribution for L=           1  read in
    real space projection operators read in
  non local Contribution for L=           1  read in
    real space projection operators read in
  non local Contribution for L=           1  read in
    real space projection operators read in
  non local Contribution for L=           2  read in
    real space projection operators read in
  non local Contribution for L=           2  read in
    real space projection operators read in
  non local Contribution for L=           2  read in
    real space projection operators read in
  non local Contribution for L=           3  read in
    real space projection operators read in
  non local Contribution for L=           3  read in
    real space projection operators read in
    PAW grid and wavefunctions read in
 
   number of l-projection  operators is LMAX  =          11
   number of lm-projection operators is LMMAX =          41
 
 POTCAR:    PAW_PBE Te_GW 22Mar2012               
   VRHFIN =Te: s2p4                                                             
   LEXCH  = PE                                                                  
   EATOM  =   223.2721 eV,   16.4100 Ry                                         
                                                                                
   TITEL  = PAW_PBE Te_GW 22Mar2012                                             
   LULTRA =        F    use ultrasoft PP ?                                      
   IUNSCR =        1    unscreen: 0-lin 1-nonlin 2-no                           
   RPACOR =    2.200    partial core radius                                     
   POMASS =  127.600; ZVAL   =    6.000    mass and valenz                      
   RCORE  =    2.600    outmost cutoff radius                                   
   RWIGS  =    2.900; RWIGS  =    1.535    wigner-seitz radius (au A)           
   ENMAX  =  174.982; ENMIN  =  131.236 eV                                      
   ICORE  =        3    local potential                                         
   LCOR   =        T    correct aug charges                                     
   LPAW   =        T    paw PP                                                  
   EAUG   =  368.792                                                            
   DEXC   =    0.000                                                            
   RMAX   =    2.665    core radius for proj-oper                               
   RAUG   =    1.300    factor for augmentation sphere                          
   RDEP   =    2.724    radius for radial grids                                 
   RDEPT  =    2.174    core radius for aug-charge                              
                                                                                
   Atomic configuration                                                         
   13 entries                                                                   
     n  l   j            E        occ.                                          
     1  0  0.50    -31621.2075   2.0000                                         
     2  0  0.50     -4848.7941   2.0000                                         
     2  1  1.50     -4352.1960   6.0000                                         
     3  0  0.50      -964.9612   2.0000                                         
     3  1  1.50      -803.6179   6.0000                                         
     3  2  2.50      -559.8710  10.0000                                         
     4  0  0.50      -164.3522   2.0000                                         
     4  1  1.50      -114.3756   6.0000                                         
     4  2  2.50       -41.6483  10.0000                                         
     5  0  0.50       -15.1072   2.0000                                         
     5  1  0.50        -5.9526   4.0000                                         
     5  2  1.50        -6.8029   0.0000                                         
     4  3  2.50        -6.8029   0.0000                                         
   Description                                                                  
     l       E           TYP  RCUT    TYP  RCUT                                 
     0    -15.1072389     23  2.300                                             
     0     68.0291300     23  2.300                                             
     1     -5.9526306     23  2.300                                             
     1     95.2407820     23  2.300                                             
     2      1.3605826     23  2.600                                             
     2     68.0291300     23  2.600                                             
     3     -1.3605826     23  2.300                                             
  local pseudopotential read in
  partial core-charges read in
  partial kinetic energy density read in
  kinetic energy density of atom read in
  atomic valenz-charges read in
  non local Contribution for L=           0  read in
    real space projection operators read in
  non local Contribution for L=           0  read in
    real space projection operators read in
  non local Contribution for L=           1  read in
    real space projection operators read in
  non local Contribution for L=           1  read in
    real space projection operators read in
  non local Contribution for L=           2  read in
    real space projection operators read in
  non local Contribution for L=           2  read in
    real space projection operators read in
    PAW grid and wavefunctions read in
 
   number of l-projection  operators is LMAX  =           6
   number of lm-projection operators is LMMAX =          18
 
  PAW_PBE Mo_sv_GW 05Dec2013            :
 energy of atom  1       EATOM=-1861.5185
 kinetic energy error for atom=    0.1105 (will be added to EATOM!!)
  PAW_PBE Te_GW 22Mar2012               :
 energy of atom  2       EATOM= -223.2721
 kinetic energy error for atom=    0.0019 (will be added to EATOM!!)
 
 
 POSCAR: Mo Te                                   
  positions in cartesian coordinates
  No initial velocities read in
 exchange correlation table for  LEXCH =        8
   RHO(1)=    0.500       N(1)  =     2000
   RHO(2)=  100.500       N(2)  =     4000
 


--------------------------------------------------------------------------------------------------------


 ion  position               nearest neighbor table
   1  0.167  0.333  0.500-   2 2.73   3 2.73   2 2.73   3 2.73   2 2.73   3 2.73
   2  0.833  0.667  0.536-   1 2.73   1 2.73   1 2.73   3 3.61
   3  0.833  0.667  0.464-   1 2.73   1 2.73   1 2.73   2 3.61
 
  LATTYP: Found a hexagonal cell.
 ALAT       =     3.5473923118
 C/A-ratio  =    14.0948605637
  
  Lattice vectors:
  
 A1 = (   3.5473923118,   0.0000000000,   0.0000000000)
 A2 = (  -1.7736961559,   3.0721318592,   0.0000000000)
 A3 = (   0.0000000000,   0.0000000000,  50.0000000000)


Analysis of symmetry for initial positions (statically):
=====================================================================
 Subroutine PRICEL returns:
 Original cell was already a primitive cell.
 

 Routine SETGRP: Setting up the symmetry group for a 
 hexagonal supercell.


 Subroutine GETGRP returns: Found 12 space group operations
 (whereof  4 operations were pure point group operations)
 out of a pool of 24 trial point group operations.


The static configuration has the point symmetry C_2v.
 The point group associated with its full space group is D_3h.


Analysis of symmetry for dynamics (positions and initial velocities):
=====================================================================
 Subroutine PRICEL returns:
 Original cell was already a primitive cell.
 

 Routine SETGRP: Setting up the symmetry group for a 
 hexagonal supercell.


 Subroutine GETGRP returns: Found 12 space group operations
 (whereof  4 operations were pure point group operations)
 out of a pool of 24 trial point group operations.


The dynamic configuration has the point symmetry C_2v.
 The point group associated with its full space group is D_3h.


 Subroutine INISYM returns: Found 12 space group operations
 (whereof  4 operations are pure point group operations),
 and found     1 'primitive' translations

 
 
 KPOINTS: KPOINTS created by Atomic Simulation Env

Automatic generation of k-mesh.
Space group operators:
 irot       det(A)        alpha          n_x          n_y          n_z        tau_x        tau_y        tau_z
    1     1.000000     0.000001     1.000000     0.000000     0.000000     0.000000     0.000000     0.000000
    2    -1.000000   179.999999     0.000000     0.000000     1.000000     0.000000     0.000000     0.000000
    3    -1.000000   180.000000     1.000000     0.000000     0.000000     0.000000     0.000000     0.000000
    4     1.000000   179.999999     0.000000     1.000000     0.000000     0.000000     0.000000     0.000000
    5    -1.000000    60.000000     0.000000     0.000000    -1.000000     0.000000     0.500000     0.000000
    6     1.000000   120.000000     0.000000     0.000000    -1.000000     0.500000     0.500000     0.000000
    7     1.000000   120.000000     0.000000     0.000000     1.000000     0.000000     0.500000     0.000000
    8    -1.000000    60.000000     0.000000     0.000000     1.000000     0.500000     0.500000     0.000000
    9     1.000000   180.000000     0.866025    -0.500000     0.000000     0.500000     0.500000     0.000000
   10    -1.000000   180.000000     0.500000    -0.866025     0.000000     0.000000     0.500000     0.000000
   11    -1.000000   180.000000    -0.500000    -0.866025     0.000000     0.500000     0.500000     0.000000
   12     1.000000   180.000000     0.866025     0.500000     0.000000     0.000000     0.500000     0.000000
 
 Subroutine IBZKPT returns following result:
 ===========================================
 
 Found     37 irreducible k-points:
 
 Following reciprocal coordinates:
            Coordinates               Weight
  0.000000  0.000000  0.000000      1.000000
  0.055556  0.000000  0.000000      6.000000
  0.111111  0.000000  0.000000      6.000000
  0.166667  0.000000  0.000000      6.000000
  0.222222  0.000000  0.000000      6.000000
  0.277778  0.000000  0.000000      6.000000
  0.333333  0.000000  0.000000      6.000000
  0.388889  0.000000  0.000000      6.000000
  0.444444  0.000000  0.000000      6.000000
  0.500000  0.000000  0.000000      3.000000
  0.055556  0.055556  0.000000      6.000000
  0.111111  0.055556  0.000000     12.000000
  0.166667  0.055556  0.000000     12.000000
  0.222222  0.055556  0.000000     12.000000
  0.277778  0.055556  0.000000     12.000000
  0.333333  0.055556  0.000000     12.000000
  0.388889  0.055556  0.000000     12.000000
  0.444444  0.055556  0.000000     12.000000
  0.111111  0.111111  0.000000      6.000000
  0.166667  0.111111  0.000000     12.000000
  0.222222  0.111111  0.000000     12.000000
  0.277778  0.111111  0.000000     12.000000
  0.333333  0.111111  0.000000     12.000000
  0.388889  0.111111  0.000000     12.000000
  0.444444  0.111111  0.000000      6.000000
  0.166667  0.166667  0.000000      6.000000
  0.222222  0.166667  0.000000     12.000000
  0.277778  0.166667  0.000000     12.000000
  0.333333  0.166667  0.000000     12.000000
  0.388889  0.166667  0.000000     12.000000
  0.222222  0.222222  0.000000      6.000000
  0.277778  0.222222  0.000000     12.000000
  0.333333  0.222222  0.000000     12.000000
  0.388889  0.222222  0.000000      6.000000
  0.277778  0.277778  0.000000      6.000000
  0.333333  0.277778  0.000000     12.000000
  0.333333  0.333333  0.000000      2.000000
 
 Following cartesian coordinates:
            Coordinates               Weight
  0.000000  0.000000  0.000000      1.000000
  0.015661  0.009042  0.000000      6.000000
  0.031322  0.018084  0.000000      6.000000
  0.046983  0.027126  0.000000      6.000000
  0.062644  0.036167  0.000000      6.000000
  0.078305  0.045209  0.000000      6.000000
  0.093966  0.054251  0.000000      6.000000
  0.109627  0.063293  0.000000      6.000000
  0.125288  0.072335  0.000000      6.000000
  0.140949  0.081377  0.000000      3.000000
  0.015661  0.027126  0.000000      6.000000
  0.031322  0.036167  0.000000     12.000000
  0.046983  0.045209  0.000000     12.000000
  0.062644  0.054251  0.000000     12.000000
  0.078305  0.063293  0.000000     12.000000
  0.093966  0.072335  0.000000     12.000000
  0.109627  0.081377  0.000000     12.000000
  0.125288  0.090419  0.000000     12.000000
  0.031322  0.054251  0.000000      6.000000
  0.046983  0.063293  0.000000     12.000000
  0.062644  0.072335  0.000000     12.000000
  0.078305  0.081377  0.000000     12.000000
  0.093966  0.090419  0.000000     12.000000
  0.109627  0.099460  0.000000     12.000000
  0.125288  0.108502  0.000000      6.000000
  0.046983  0.081377  0.000000      6.000000
  0.062644  0.090419  0.000000     12.000000
  0.078305  0.099460  0.000000     12.000000
  0.093966  0.108502  0.000000     12.000000
  0.109627  0.117544  0.000000     12.000000
  0.062644  0.108502  0.000000      6.000000
  0.078305  0.117544  0.000000     12.000000
  0.093966  0.126586  0.000000     12.000000
  0.109627  0.135628  0.000000      6.000000
  0.078305  0.135628  0.000000      6.000000
  0.093966  0.144670  0.000000     12.000000
  0.093966  0.162753  0.000000      2.000000
 
 TETIRR: Found    169 inequivalent tetrahedra from     1944
 
 Subroutine IBZKPT_HF returns following result:
 ==============================================
 
 Found    324 k-points in 1st BZ
 the following    324 k-points will be used (e.g. in the exchange kernel)
 Following reciprocal coordinates:   # in IRBZ
  0.000000  0.000000  0.000000    0.00308642   1 t-inv F
  0.055556  0.000000  0.000000    0.00308642   2 t-inv F
  0.111111  0.000000  0.000000    0.00308642   3 t-inv F
  0.166667  0.000000  0.000000    0.00308642   4 t-inv F
  0.222222  0.000000  0.000000    0.00308642   5 t-inv F
  0.277778  0.000000  0.000000    0.00308642   6 t-inv F
  0.333333  0.000000  0.000000    0.00308642   7 t-inv F
  0.388889  0.000000  0.000000    0.00308642   8 t-inv F
  0.444444  0.000000  0.000000    0.00308642   9 t-inv F
  0.500000  0.000000  0.000000    0.00308642  10 t-inv F
  0.055556  0.055556  0.000000    0.00308642  11 t-inv F
  0.111111  0.055556  0.000000    0.00308642  12 t-inv F
  0.166667  0.055556  0.000000    0.00308642  13 t-inv F
  0.222222  0.055556  0.000000    0.00308642  14 t-inv F
  0.277778  0.055556  0.000000    0.00308642  15 t-inv F
  0.333333  0.055556  0.000000    0.00308642  16 t-inv F
  0.388889  0.055556  0.000000    0.00308642  17 t-inv F
  0.444444  0.055556  0.000000    0.00308642  18 t-inv F
  0.111111  0.111111  0.000000    0.00308642  19 t-inv F
  0.166667  0.111111  0.000000    0.00308642  20 t-inv F
  0.222222  0.111111  0.000000    0.00308642  21 t-inv F
  0.277778  0.111111  0.000000    0.00308642  22 t-inv F
  0.333333  0.111111  0.000000    0.00308642  23 t-inv F
  0.388889  0.111111  0.000000    0.00308642  24 t-inv F
  0.444444  0.111111  0.000000    0.00308642  25 t-inv F
  0.166667  0.166667  0.000000    0.00308642  26 t-inv F
  0.222222  0.166667  0.000000    0.00308642  27 t-inv F
  0.277778  0.166667  0.000000    0.00308642  28 t-inv F
  0.333333  0.166667  0.000000    0.00308642  29 t-inv F
  0.388889  0.166667  0.000000    0.00308642  30 t-inv F
  0.222222  0.222222  0.000000    0.00308642  31 t-inv F
  0.277778  0.222222  0.000000    0.00308642  32 t-inv F
  0.333333  0.222222  0.000000    0.00308642  33 t-inv F
  0.388889  0.222222  0.000000    0.00308642  34 t-inv F
  0.277778  0.277778  0.000000    0.00308642  35 t-inv F
  0.333333  0.277778  0.000000    0.00308642  36 t-inv F
  0.333333  0.333333  0.000000    0.00308642  37 t-inv F
 -0.055556  0.055556  0.000000    0.00308642   2 t-inv F
  0.000000 -0.055556 -0.000000    0.00308642   2 t-inv F
 -0.111111  0.111111  0.000000    0.00308642   3 t-inv F
  0.000000 -0.111111 -0.000000    0.00308642   3 t-inv F
 -0.166667  0.166667  0.000000    0.00308642   4 t-inv F
  0.000000 -0.166667 -0.000000    0.00308642   4 t-inv F
 -0.222222  0.222222  0.000000    0.00308642   5 t-inv F
  0.000000 -0.222222 -0.000000    0.00308642   5 t-inv F
 -0.277778  0.277778  0.000000    0.00308642   6 t-inv F
  0.000000 -0.277778 -0.000000    0.00308642   6 t-inv F
 -0.333333  0.333333  0.000000    0.00308642   7 t-inv F
  0.000000 -0.333333 -0.000000    0.00308642   7 t-inv F
 -0.388889  0.388889  0.000000    0.00308642   8 t-inv F
  0.000000 -0.388889 -0.000000    0.00308642   8 t-inv F
 -0.444444  0.444444  0.000000    0.00308642   9 t-inv F
  0.000000 -0.444444 -0.000000    0.00308642   9 t-inv F
 -0.500000  0.500000  0.000000    0.00308642  10 t-inv F
  0.000000 -0.500000 -0.000000    0.00308642  10 t-inv F
 -0.055556  0.111111  0.000000    0.00308642  11 t-inv F
  0.055556 -0.111111 -0.000000    0.00308642  11 t-inv F
 -0.111111  0.055556  0.000000    0.00308642  11 t-inv F
 -0.055556 -0.055556 -0.000000    0.00308642  11 t-inv F
  0.111111 -0.055556  0.000000    0.00308642  11 t-inv F
 -0.111111  0.166667  0.000000    0.00308642  12 t-inv F
  0.055556 -0.166667 -0.000000    0.00308642  12 t-inv F
 -0.166667  0.111111  0.000000    0.00308642  12 t-inv F
 -0.055556 -0.111111 -0.000000    0.00308642  12 t-inv F
  0.166667 -0.055556  0.000000    0.00308642  12 t-inv F
 -0.166667  0.222222  0.000000    0.00308642  13 t-inv F
  0.055556 -0.222222 -0.000000    0.00308642  13 t-inv F
 -0.222222  0.166667  0.000000    0.00308642  13 t-inv F
 -0.055556 -0.166667 -0.000000    0.00308642  13 t-inv F
  0.222222 -0.055556  0.000000    0.00308642  13 t-inv F
 -0.222222  0.277778  0.000000    0.00308642  14 t-inv F
  0.055556 -0.277778 -0.000000    0.00308642  14 t-inv F
 -0.277778  0.222222  0.000000    0.00308642  14 t-inv F
 -0.055556 -0.222222 -0.000000    0.00308642  14 t-inv F
  0.277778 -0.055556  0.000000    0.00308642  14 t-inv F
 -0.277778  0.333333  0.000000    0.00308642  15 t-inv F
  0.055556 -0.333333 -0.000000    0.00308642  15 t-inv F
 -0.333333  0.277778  0.000000    0.00308642  15 t-inv F
 -0.055556 -0.277778 -0.000000    0.00308642  15 t-inv F
  0.333333 -0.055556  0.000000    0.00308642  15 t-inv F
 -0.333333  0.388889  0.000000    0.00308642  16 t-inv F
  0.055556 -0.388889 -0.000000    0.00308642  16 t-inv F
 -0.388889  0.333333  0.000000    0.00308642  16 t-inv F
 -0.055556 -0.333333 -0.000000    0.00308642  16 t-inv F
  0.388889 -0.055556  0.000000    0.00308642  16 t-inv F
 -0.388889  0.444444  0.000000    0.00308642  17 t-inv F
  0.055556 -0.444444 -0.000000    0.00308642  17 t-inv F
 -0.444444  0.388889  0.000000    0.00308642  17 t-inv F
 -0.055556 -0.388889 -0.000000    0.00308642  17 t-inv F
  0.444444 -0.055556  0.000000    0.00308642  17 t-inv F
 -0.444444  0.500000  0.000000    0.00308642  18 t-inv F
  0.055556 -0.500000 -0.000000    0.00308642  18 t-inv F
 -0.500000  0.444444  0.000000    0.00308642  18 t-inv F
 -0.055556 -0.444444 -0.000000    0.00308642  18 t-inv F
  0.500000 -0.055556  0.000000    0.00308642  18 t-inv F
 -0.111111  0.222222  0.000000    0.00308642  19 t-inv F
  0.111111 -0.222222 -0.000000    0.00308642  19 t-inv F
 -0.222222  0.111111  0.000000    0.00308642  19 t-inv F
 -0.111111 -0.111111 -0.000000    0.00308642  19 t-inv F
  0.222222 -0.111111  0.000000    0.00308642  19 t-inv F
 -0.166667  0.277778  0.000000    0.00308642  20 t-inv F
  0.111111 -0.277778 -0.000000    0.00308642  20 t-inv F
 -0.277778  0.166667  0.000000    0.00308642  20 t-inv F
 -0.111111 -0.166667 -0.000000    0.00308642  20 t-inv F
  0.277778 -0.111111  0.000000    0.00308642  20 t-inv F
 -0.222222  0.333333  0.000000    0.00308642  21 t-inv F
  0.111111 -0.333333 -0.000000    0.00308642  21 t-inv F
 -0.333333  0.222222  0.000000    0.00308642  21 t-inv F
 -0.111111 -0.222222 -0.000000    0.00308642  21 t-inv F
  0.333333 -0.111111  0.000000    0.00308642  21 t-inv F
 -0.277778  0.388889  0.000000    0.00308642  22 t-inv F
  0.111111 -0.388889 -0.000000    0.00308642  22 t-inv F
 -0.388889  0.277778  0.000000    0.00308642  22 t-inv F
 -0.111111 -0.277778 -0.000000    0.00308642  22 t-inv F
  0.388889 -0.111111  0.000000    0.00308642  22 t-inv F
 -0.333333  0.444444  0.000000    0.00308642  23 t-inv F
  0.111111 -0.444444 -0.000000    0.00308642  23 t-inv F
 -0.444444  0.333333  0.000000    0.00308642  23 t-inv F
 -0.111111 -0.333333 -0.000000    0.00308642  23 t-inv F
  0.444444 -0.111111  0.000000    0.00308642  23 t-inv F
 -0.388889  0.500000  0.000000    0.00308642  24 t-inv F
  0.111111 -0.500000 -0.000000    0.00308642  24 t-inv F
 -0.500000  0.388889  0.000000    0.00308642  24 t-inv F
 -0.111111 -0.388889 -0.000000    0.00308642  24 t-inv F
  0.500000 -0.111111  0.000000    0.00308642  24 t-inv F
 -0.444444  0.555556  0.000000    0.00308642  25 t-inv F
  0.111111 -0.555556 -0.000000    0.00308642  25 t-inv F
 -0.555556  0.444444  0.000000    0.00308642  25 t-inv F
 -0.111111 -0.444444 -0.000000    0.00308642  25 t-inv F
  0.555556 -0.111111  0.000000    0.00308642  25 t-inv F
 -0.166667  0.333333  0.000000    0.00308642  26 t-inv F
  0.166667 -0.333333 -0.000000    0.00308642  26 t-inv F
 -0.333333  0.166667  0.000000    0.00308642  26 t-inv F
 -0.166667 -0.166667 -0.000000    0.00308642  26 t-inv F
  0.333333 -0.166667  0.000000    0.00308642  26 t-inv F
 -0.222222  0.388889  0.000000    0.00308642  27 t-inv F
  0.166667 -0.388889 -0.000000    0.00308642  27 t-inv F
 -0.388889  0.222222  0.000000    0.00308642  27 t-inv F
 -0.166667 -0.222222 -0.000000    0.00308642  27 t-inv F
  0.388889 -0.166667  0.000000    0.00308642  27 t-inv F
 -0.277778  0.444444  0.000000    0.00308642  28 t-inv F
  0.166667 -0.444444 -0.000000    0.00308642  28 t-inv F
 -0.444444  0.277778  0.000000    0.00308642  28 t-inv F
 -0.166667 -0.277778 -0.000000    0.00308642  28 t-inv F
  0.444444 -0.166667  0.000000    0.00308642  28 t-inv F
 -0.333333  0.500000  0.000000    0.00308642  29 t-inv F
  0.166667 -0.500000 -0.000000    0.00308642  29 t-inv F
 -0.500000  0.333333  0.000000    0.00308642  29 t-inv F
 -0.166667 -0.333333 -0.000000    0.00308642  29 t-inv F
  0.500000 -0.166667  0.000000    0.00308642  29 t-inv F
 -0.388889  0.555556  0.000000    0.00308642  30 t-inv F
  0.166667 -0.555556 -0.000000    0.00308642  30 t-inv F
 -0.555556  0.388889  0.000000    0.00308642  30 t-inv F
 -0.166667 -0.388889 -0.000000    0.00308642  30 t-inv F
  0.555556 -0.166667  0.000000    0.00308642  30 t-inv F
 -0.222222  0.444444  0.000000    0.00308642  31 t-inv F
  0.222222 -0.444444 -0.000000    0.00308642  31 t-inv F
 -0.444444  0.222222  0.000000    0.00308642  31 t-inv F
 -0.222222 -0.222222 -0.000000    0.00308642  31 t-inv F
  0.444444 -0.222222  0.000000    0.00308642  31 t-inv F
 -0.277778  0.500000  0.000000    0.00308642  32 t-inv F
  0.222222 -0.500000 -0.000000    0.00308642  32 t-inv F
 -0.500000  0.277778  0.000000    0.00308642  32 t-inv F
 -0.222222 -0.277778 -0.000000    0.00308642  32 t-inv F
  0.500000 -0.222222  0.000000    0.00308642  32 t-inv F
 -0.333333  0.555556  0.000000    0.00308642  33 t-inv F
  0.222222 -0.555556 -0.000000    0.00308642  33 t-inv F
 -0.555556  0.333333  0.000000    0.00308642  33 t-inv F
 -0.222222 -0.333333 -0.000000    0.00308642  33 t-inv F
  0.555556 -0.222222  0.000000    0.00308642  33 t-inv F
 -0.388889  0.611111  0.000000    0.00308642  34 t-inv F
  0.222222 -0.611111 -0.000000    0.00308642  34 t-inv F
 -0.611111  0.388889  0.000000    0.00308642  34 t-inv F
 -0.222222 -0.388889 -0.000000    0.00308642  34 t-inv F
  0.611111 -0.222222  0.000000    0.00308642  34 t-inv F
 -0.277778  0.555556  0.000000    0.00308642  35 t-inv F
  0.277778 -0.555556 -0.000000    0.00308642  35 t-inv F
 -0.555556  0.277778  0.000000    0.00308642  35 t-inv F
 -0.277778 -0.277778 -0.000000    0.00308642  35 t-inv F
  0.555556 -0.277778  0.000000    0.00308642  35 t-inv F
 -0.333333  0.611111  0.000000    0.00308642  36 t-inv F
  0.277778 -0.611111 -0.000000    0.00308642  36 t-inv F
 -0.611111  0.333333  0.000000    0.00308642  36 t-inv F
 -0.277778 -0.333333 -0.000000    0.00308642  36 t-inv F
  0.611111 -0.277778  0.000000    0.00308642  36 t-inv F
 -0.333333  0.666667  0.000000    0.00308642  37 t-inv F
 -0.055556 -0.000000 -0.000000    0.00308642   2 t-inv T
  0.055556 -0.055556 -0.000000    0.00308642   2 t-inv T
 -0.000000  0.055556  0.000000    0.00308642   2 t-inv T
 -0.111111 -0.000000 -0.000000    0.00308642   3 t-inv T
  0.111111 -0.111111 -0.000000    0.00308642   3 t-inv T
 -0.000000  0.111111  0.000000    0.00308642   3 t-inv T
 -0.166667 -0.000000 -0.000000    0.00308642   4 t-inv T
  0.166667 -0.166667 -0.000000    0.00308642   4 t-inv T
 -0.000000  0.166667  0.000000    0.00308642   4 t-inv T
 -0.222222 -0.000000 -0.000000    0.00308642   5 t-inv T
  0.222222 -0.222222 -0.000000    0.00308642   5 t-inv T
 -0.000000  0.222222  0.000000    0.00308642   5 t-inv T
 -0.277778 -0.000000 -0.000000    0.00308642   6 t-inv T
  0.277778 -0.277778 -0.000000    0.00308642   6 t-inv T
 -0.000000  0.277778  0.000000    0.00308642   6 t-inv T
 -0.333333 -0.000000 -0.000000    0.00308642   7 t-inv T
  0.333333 -0.333333 -0.000000    0.00308642   7 t-inv T
 -0.000000  0.333333  0.000000    0.00308642   7 t-inv T
 -0.388889 -0.000000 -0.000000    0.00308642   8 t-inv T
  0.388889 -0.388889 -0.000000    0.00308642   8 t-inv T
 -0.000000  0.388889  0.000000    0.00308642   8 t-inv T
 -0.444444 -0.000000 -0.000000    0.00308642   9 t-inv T
  0.444444 -0.444444 -0.000000    0.00308642   9 t-inv T
 -0.000000  0.444444  0.000000    0.00308642   9 t-inv T
 -0.111111 -0.055556 -0.000000    0.00308642  12 t-inv T
  0.111111 -0.166667 -0.000000    0.00308642  12 t-inv T
 -0.055556  0.166667  0.000000    0.00308642  12 t-inv T
  0.166667 -0.111111 -0.000000    0.00308642  12 t-inv T
  0.055556  0.111111  0.000000    0.00308642  12 t-inv T
 -0.166667  0.055556 -0.000000    0.00308642  12 t-inv T
 -0.166667 -0.055556 -0.000000    0.00308642  13 t-inv T
  0.166667 -0.222222 -0.000000    0.00308642  13 t-inv T
 -0.055556  0.222222  0.000000    0.00308642  13 t-inv T
  0.222222 -0.166667 -0.000000    0.00308642  13 t-inv T
  0.055556  0.166667  0.000000    0.00308642  13 t-inv T
 -0.222222  0.055556 -0.000000    0.00308642  13 t-inv T
 -0.222222 -0.055556 -0.000000    0.00308642  14 t-inv T
  0.222222 -0.277778 -0.000000    0.00308642  14 t-inv T
 -0.055556  0.277778  0.000000    0.00308642  14 t-inv T
  0.277778 -0.222222 -0.000000    0.00308642  14 t-inv T
  0.055556  0.222222  0.000000    0.00308642  14 t-inv T
 -0.277778  0.055556 -0.000000    0.00308642  14 t-inv T
 -0.277778 -0.055556 -0.000000    0.00308642  15 t-inv T
  0.277778 -0.333333 -0.000000    0.00308642  15 t-inv T
 -0.055556  0.333333  0.000000    0.00308642  15 t-inv T
  0.333333 -0.277778 -0.000000    0.00308642  15 t-inv T
  0.055556  0.277778  0.000000    0.00308642  15 t-inv T
 -0.333333  0.055556 -0.000000    0.00308642  15 t-inv T
 -0.333333 -0.055556 -0.000000    0.00308642  16 t-inv T
  0.333333 -0.388889 -0.000000    0.00308642  16 t-inv T
 -0.055556  0.388889  0.000000    0.00308642  16 t-inv T
  0.388889 -0.333333 -0.000000    0.00308642  16 t-inv T
  0.055556  0.333333  0.000000    0.00308642  16 t-inv T
 -0.388889  0.055556 -0.000000    0.00308642  16 t-inv T
 -0.388889 -0.055556 -0.000000    0.00308642  17 t-inv T
  0.388889 -0.444444 -0.000000    0.00308642  17 t-inv T
 -0.055556  0.444444  0.000000    0.00308642  17 t-inv T
  0.444444 -0.388889 -0.000000    0.00308642  17 t-inv T
  0.055556  0.388889  0.000000    0.00308642  17 t-inv T
 -0.444444  0.055556 -0.000000    0.00308642  17 t-inv T
 -0.444444 -0.055556 -0.000000    0.00308642  18 t-inv T
  0.444444 -0.500000 -0.000000    0.00308642  18 t-inv T
 -0.055556  0.500000  0.000000    0.00308642  18 t-inv T
  0.500000 -0.444444 -0.000000    0.00308642  18 t-inv T
  0.055556  0.444444  0.000000    0.00308642  18 t-inv T
 -0.500000  0.055556 -0.000000    0.00308642  18 t-inv T
 -0.166667 -0.111111 -0.000000    0.00308642  20 t-inv T
  0.166667 -0.277778 -0.000000    0.00308642  20 t-inv T
 -0.111111  0.277778  0.000000    0.00308642  20 t-inv T
  0.277778 -0.166667 -0.000000    0.00308642  20 t-inv T
  0.111111  0.166667  0.000000    0.00308642  20 t-inv T
 -0.277778  0.111111 -0.000000    0.00308642  20 t-inv T
 -0.222222 -0.111111 -0.000000    0.00308642  21 t-inv T
  0.222222 -0.333333 -0.000000    0.00308642  21 t-inv T
 -0.111111  0.333333  0.000000    0.00308642  21 t-inv T
  0.333333 -0.222222 -0.000000    0.00308642  21 t-inv T
  0.111111  0.222222  0.000000    0.00308642  21 t-inv T
 -0.333333  0.111111 -0.000000    0.00308642  21 t-inv T
 -0.277778 -0.111111 -0.000000    0.00308642  22 t-inv T
  0.277778 -0.388889 -0.000000    0.00308642  22 t-inv T
 -0.111111  0.388889  0.000000    0.00308642  22 t-inv T
  0.388889 -0.277778 -0.000000    0.00308642  22 t-inv T
  0.111111  0.277778  0.000000    0.00308642  22 t-inv T
 -0.388889  0.111111 -0.000000    0.00308642  22 t-inv T
 -0.333333 -0.111111 -0.000000    0.00308642  23 t-inv T
  0.333333 -0.444444 -0.000000    0.00308642  23 t-inv T
 -0.111111  0.444444  0.000000    0.00308642  23 t-inv T
  0.444444 -0.333333 -0.000000    0.00308642  23 t-inv T
  0.111111  0.333333  0.000000    0.00308642  23 t-inv T
 -0.444444  0.111111 -0.000000    0.00308642  23 t-inv T
 -0.388889 -0.111111 -0.000000    0.00308642  24 t-inv T
  0.388889 -0.500000 -0.000000    0.00308642  24 t-inv T
 -0.111111  0.500000  0.000000    0.00308642  24 t-inv T
  0.500000 -0.388889 -0.000000    0.00308642  24 t-inv T
  0.111111  0.388889  0.000000    0.00308642  24 t-inv T
 -0.500000  0.111111 -0.000000    0.00308642  24 t-inv T
 -0.222222 -0.166667 -0.000000    0.00308642  27 t-inv T
  0.222222 -0.388889 -0.000000    0.00308642  27 t-inv T
 -0.166667  0.388889  0.000000    0.00308642  27 t-inv T
  0.388889 -0.222222 -0.000000    0.00308642  27 t-inv T
  0.166667  0.222222  0.000000    0.00308642  27 t-inv T
 -0.388889  0.166667 -0.000000    0.00308642  27 t-inv T
 -0.277778 -0.166667 -0.000000    0.00308642  28 t-inv T
  0.277778 -0.444444 -0.000000    0.00308642  28 t-inv T
 -0.166667  0.444444  0.000000    0.00308642  28 t-inv T
  0.444444 -0.277778 -0.000000    0.00308642  28 t-inv T
  0.166667  0.277778  0.000000    0.00308642  28 t-inv T
 -0.444444  0.166667 -0.000000    0.00308642  28 t-inv T
 -0.333333 -0.166667 -0.000000    0.00308642  29 t-inv T
  0.333333 -0.500000 -0.000000    0.00308642  29 t-inv T
 -0.166667  0.500000  0.000000    0.00308642  29 t-inv T
  0.500000 -0.333333 -0.000000    0.00308642  29 t-inv T
  0.166667  0.333333  0.000000    0.00308642  29 t-inv T
 -0.500000  0.166667 -0.000000    0.00308642  29 t-inv T
 -0.388889 -0.166667 -0.000000    0.00308642  30 t-inv T
  0.388889 -0.555556 -0.000000    0.00308642  30 t-inv T
 -0.166667  0.555556  0.000000    0.00308642  30 t-inv T
  0.555556 -0.388889 -0.000000    0.00308642  30 t-inv T
  0.166667  0.388889  0.000000    0.00308642  30 t-inv T
 -0.555556  0.166667 -0.000000    0.00308642  30 t-inv T
 -0.277778 -0.222222 -0.000000    0.00308642  32 t-inv T
  0.277778 -0.500000 -0.000000    0.00308642  32 t-inv T
 -0.222222  0.500000  0.000000    0.00308642  32 t-inv T
  0.500000 -0.277778 -0.000000    0.00308642  32 t-inv T
  0.222222  0.277778  0.000000    0.00308642  32 t-inv T
 -0.500000  0.222222 -0.000000    0.00308642  32 t-inv T
 -0.333333 -0.222222 -0.000000    0.00308642  33 t-inv T
  0.333333 -0.555556 -0.000000    0.00308642  33 t-inv T
 -0.222222  0.555556  0.000000    0.00308642  33 t-inv T
  0.555556 -0.333333 -0.000000    0.00308642  33 t-inv T
  0.222222  0.333333  0.000000    0.00308642  33 t-inv T
 -0.555556  0.222222 -0.000000    0.00308642  33 t-inv T
 -0.333333 -0.277778 -0.000000    0.00308642  36 t-inv T
  0.333333 -0.611111 -0.000000    0.00308642  36 t-inv T
 -0.277778  0.611111  0.000000    0.00308642  36 t-inv T
  0.611111 -0.333333 -0.000000    0.00308642  36 t-inv T
  0.277778  0.333333  0.000000    0.00308642  36 t-inv T
 -0.611111  0.277778 -0.000000    0.00308642  36 t-inv T


--------------------------------------------------------------------------------------------------------




 Dimension of arrays:
   k-points           NKPTS =     37   k-points in BZ     NKDIM =     37   number of bands    NBANDS=     28
   number of dos      NEDOS =    301   number of ions     NIONS =      3
   non local maximal  LDIM  =     11   non local SUM 2l+1 LMDIM =     41
   total plane-waves  NPLWV = 184320
   max r-space proj   IRMAX =      1   max aug-charges    IRDMAX=  19872
   dimension x,y,z NGX =    24 NGY =   24 NGZ =  320
   dimension x,y,z NGXF=    48 NGYF=   48 NGZF=  640
   support grid    NGXF=    48 NGYF=   48 NGZF=  640
   ions per type =               1   2
 NGX,Y,Z   is equivalent  to a cutoff of  11.25, 11.25, 10.64 a.u.
 NGXF,Y,Z  is equivalent  to a cutoff of  22.49, 22.49, 21.28 a.u.


 I would recommend the setting:
   dimension x,y,z NGX =    21 NGY =   21 NGZ =  303
 SYSTEM =  unknown system                          
 POSCAR =  Mo Te                                   

 Startparameter for this run:
   NWRITE =      2    write-flag & timer
   PREC   = accura    normal or accurate (medium, high low for compatibility)
   ISTART =      0    job   : 0-new  1-cont  2-samecut
   ICHARG =      2    charge: 1-file 2-atom 10-const
   ISPIN  =      1    spin polarized calculation?
   LNONCOLLINEAR =      F non collinear calculations
   LSORBIT =      F    spin-orbit coupling
   INIWAV =      1    electr: 0-lowe 1-rand  2-diag
   LASPH  =      F    aspherical Exc in radial PAW
   METAGGA=      F    non-selfconsistent MetaGGA calc.

 Electronic Relaxation 1
   ENCUT  =  344.9 eV  25.35 Ry    5.03 a.u.   5.37  5.37 75.72*2*pi/ulx,y,z
   ENINI  =  344.9     initial cutoff
   ENAUG  =  964.7 eV  augmentation charge cutoff
   NELM   =     60;   NELMIN=  5; NELMDL= -5     # of ELM steps 
   EDIFF  = 0.1E-07   stopping-criterion for ELM
   LREAL  =      F    real-space projection
   NLSPLINE    = F    spline interpolate recip. space projectors
   LCOMPAT=      F    compatible to vasp.4.4
   GGA_COMPAT  = T    GGA compatible to vasp.4.4-vasp.4.6
   LMAXPAW     = -100 max onsite density
   LMAXMIX     =    2 max onsite mixed and CHGCAR
   VOSKOWN=      0    Vosko Wilk Nusair interpolation
   ROPT   =    0.00000   0.00000
 Ionic relaxation
   EDIFFG = 0.1E-06   stopping-criterion for IOM
   NSW    =      0    number of steps for IOM
   NBLOCK =      1;   KBLOCK =      1    inner block; outer block 
   IBRION =     -1    ionic relax: 0-MD 1-quasi-New 2-CG
   NFREE  =      0    steps in history (QN), initial steepest desc. (CG)
   ISIF   =      2    stress and relaxation
   IWAVPR =     10    prediction:  0-non 1-charg 2-wave 3-comb
   ISYM   =      2    0-nonsym 1-usesym 2-fastsym
   LCORR  =      T    Harris-Foulkes like correction to forces

   POTIM  = 0.5000    time-step for ionic-motion
   TEIN   =    0.0    initial temperature
   TEBEG  =    0.0;   TEEND  =   0.0 temperature during run
   SMASS  =  -3.00    Nose mass-parameter (am)
   estimated Nose-frequenzy (Omega)   =  0.10E-29 period in steps =****** mass=  -0.288E-27a.u.
   SCALEE = 1.0000    scale energy and forces
   NPACO  =    256;   APACO  = 16.0  distance and # of slots for P.C.
   PSTRESS=    0.0 pullay stress

  Mass of Ions in am
   POMASS =  95.94127.60
  Ionic Valenz
   ZVAL   =  14.00  6.00
  Atomic Wigner-Seitz radii
   RWIGS  =  -1.00 -1.00
  virtual crystal weights 
   VCA    =   1.00  1.00
   NELECT =      26.0000    total number of electrons
   NUPDOWN=      -1.0000    fix difference up-down

 DOS related values:
   EMIN   =  10.00;   EMAX   =-10.00  energy-range for DOS
   EFERMI =   0.00
   ISMEAR =    -5;   SIGMA  =   0.01  broadening in eV -4-tet -1-fermi 0-gaus

 Electronic relaxation 2 (details)
   IALGO  =     38    algorithm
   LDIAG  =      T    sub-space diagonalisation (order eigenvalues)
   LSUBROT=      F    optimize rotation matrix (better conditioning)
   TURBO    =      0    0=normal 1=particle mesh
   IRESTART =      0    0=no restart 2=restart with 2 vectors
   NREBOOT  =      0    no. of reboots
   NMIN     =      0    reboot dimension
   EREF     =   0.00    reference energy to select bands
   IMIX   =      4    mixing-type and parameters
     AMIX     =   0.40;   BMIX     =  1.00
     AMIX_MAG =   1.60;   BMIX_MAG =  1.00
     AMIN     =   0.10
     WC   =   100.;   INIMIX=   1;  MIXPRE=   1;  MAXMIX= -45

 Intra band minimization:
   WEIMIN = 0.0000     energy-eigenvalue tresh-hold
   EBREAK =  0.89E-10  absolut break condition
   DEPER  =   0.30     relativ break condition  

   TIME   =   0.40     timestep for ELM

  volume/ion in A,a.u.               =     181.63      1225.73
  Fermi-wavevector in a.u.,A,eV,Ry     =   0.593781  1.122083  4.797085  0.352576
  Thomas-Fermi vector in A             =   1.643111
 
 Write flags
   LWAVE  =      T    write WAVECAR
   LCHARG =      T    write CHGCAR
   LVTOT  =      F    write LOCPOT, total local potential
   LVHAR  =      F    write LOCPOT, Hartree potential only
   LELF   =      F    write electronic localiz. function (ELF)
   LORBIT =      0    0 simple, 1 ext, 2 COOP (PROOUT)


 Dipole corrections
   LMONO  =      F    monopole corrections only (constant potential shift)
   LDIPOL =      F    correct potential (dipole corrections)
   IDIPOL =      0    1-x, 2-y, 3-z, 4-all directions 
   EPSILON=  1.0000000 bulk dielectric constant

 Exchange correlation treatment:
   GGA     =    PE    GGA type
   LEXCH   =     8    internal setting for exchange type
   VOSKOWN=      0    Vosko Wilk Nusair interpolation
   LHFCALC =     F    Hartree Fock is set to
   LHFONE  =     F    Hartree Fock one center treatment
   AEXX    =    0.0000 exact exchange contribution

 Linear response parameters
   LEPSILON=     T    determine dielectric tensor
   LRPA    =     F    only Hartree local field effects (RPA)
   LNABLA  =     F    use nabla operator in PAW spheres
   LVEL    =     F    velocity operator in full k-point grid
   LINTERFAST=   F  fast interpolation
   KINTER  =     0    interpolate to denser k-point grid
   CSHIFT  =0.1000    complex shift for real part using Kramers Kronig
   OMEGAMAX=  -1.0    maximum frequency
   DEG_THRESHOLD= 0.2000000E-02 threshold for treating states as degnerate
   RTIME   =    0.100 relaxation time in fs

 Orbital magnetization related:
   ORBITALMAG=     F  switch on orbital magnetization
   LCHIMAG   =     F  perturbation theory with respect to B field
   DQ        =  0.001000  dq finite difference perturbation B field



--------------------------------------------------------------------------------------------------------


 Static calculation
 charge density and potential will be updated during run
 non-spin polarized calculation
 Variant of blocked Davidson
 Davidson routine will perform the subspace rotation
 perform sub-space diagonalisation
    after iterative eigenvector-optimisation
 modified Broyden-mixing scheme, WC =      100.0
 initial mixing is a Kerker type mixing with AMIX =  0.4000 and BMIX =      1.0000
 Hartree-type preconditioning will be used
 using additional bands           15
 reciprocal scheme for non local part
 use partial core corrections
 calculate Harris-corrections to forces 
   (improved forces if not selfconsistent)
 use gradient corrections 
 use of overlap-Matrix (Vanderbilt PP)
 Fermi weights with tetrahedron method with Bloechl corrections


--------------------------------------------------------------------------------------------------------


  energy-cutoff  :      344.91
  volume of cell :      544.90
      direct lattice vectors                 reciprocal lattice vectors
     3.547392312  0.000000000  0.000000000     0.281897211  0.162753431  0.000000000
    -1.773696156  3.072131859  0.000000000     0.000000000  0.325506862  0.000000000
     0.000000000  0.000000000 50.000000000     0.000000000  0.000000000  0.020000000

  length of vectors
     3.547392312  3.547392312 50.000000000     0.325506862  0.325506862  0.020000000


 
 k-points in units of 2pi/SCALE and weight: KPOINTS created by Atomic Simulation Env
   0.00000000  0.00000000  0.00000000       0.003
   0.01566096  0.00904186  0.00000000       0.019
   0.03132191  0.01808371  0.00000000       0.019
   0.04698287  0.02712557  0.00000000       0.019
   0.06264382  0.03616743  0.00000000       0.019
   0.07830478  0.04520929  0.00000000       0.019
   0.09396574  0.05425114  0.00000000       0.019
   0.10962669  0.06329300  0.00000000       0.019
   0.12528765  0.07233486  0.00000000       0.019
   0.14094861  0.08137672  0.00000000       0.009
   0.01566096  0.02712557  0.00000000       0.019
   0.03132191  0.03616743  0.00000000       0.037
   0.04698287  0.04520929  0.00000000       0.037
   0.06264382  0.05425114  0.00000000       0.037
   0.07830478  0.06329300  0.00000000       0.037
   0.09396574  0.07233486  0.00000000       0.037
   0.10962669  0.08137672  0.00000000       0.037
   0.12528765  0.09041857  0.00000000       0.037
   0.03132191  0.05425114  0.00000000       0.019
   0.04698287  0.06329300  0.00000000       0.037
   0.06264382  0.07233486  0.00000000       0.037
   0.07830478  0.08137672  0.00000000       0.037
   0.09396574  0.09041857  0.00000000       0.037
   0.10962669  0.09946043  0.00000000       0.037
   0.12528765  0.10850229  0.00000000       0.019
   0.04698287  0.08137672  0.00000000       0.019
   0.06264382  0.09041857  0.00000000       0.037
   0.07830478  0.09946043  0.00000000       0.037
   0.09396574  0.10850229  0.00000000       0.037
   0.10962669  0.11754414  0.00000000       0.037
   0.06264382  0.10850229  0.00000000       0.019
   0.07830478  0.11754414  0.00000000       0.037
   0.09396574  0.12658600  0.00000000       0.037
   0.10962669  0.13562786  0.00000000       0.019
   0.07830478  0.13562786  0.00000000       0.019
   0.09396574  0.14466972  0.00000000       0.037
   0.09396574  0.16275343  0.00000000       0.006
 
 k-points in reciprocal lattice and weights: KPOINTS created by Atomic Simulation Env
   0.00000000  0.00000000  0.00000000       0.003
   0.05555556  0.00000000  0.00000000       0.019
   0.11111111  0.00000000  0.00000000       0.019
   0.16666667  0.00000000  0.00000000       0.019
   0.22222222  0.00000000  0.00000000       0.019
   0.27777778  0.00000000  0.00000000       0.019
   0.33333333  0.00000000  0.00000000       0.019
   0.38888889  0.00000000  0.00000000       0.019
   0.44444444  0.00000000  0.00000000       0.019
   0.50000000  0.00000000  0.00000000       0.009
   0.05555556  0.05555556  0.00000000       0.019
   0.11111111  0.05555556  0.00000000       0.037
   0.16666667  0.05555556  0.00000000       0.037
   0.22222222  0.05555556  0.00000000       0.037
   0.27777778  0.05555556  0.00000000       0.037
   0.33333333  0.05555556  0.00000000       0.037
   0.38888889  0.05555556  0.00000000       0.037
   0.44444444  0.05555556  0.00000000       0.037
   0.11111111  0.11111111  0.00000000       0.019
   0.16666667  0.11111111  0.00000000       0.037
   0.22222222  0.11111111  0.00000000       0.037
   0.27777778  0.11111111  0.00000000       0.037
   0.33333333  0.11111111  0.00000000       0.037
   0.38888889  0.11111111  0.00000000       0.037
   0.44444444  0.11111111  0.00000000       0.019
   0.16666667  0.16666667  0.00000000       0.019
   0.22222222  0.16666667  0.00000000       0.037
   0.27777778  0.16666667  0.00000000       0.037
   0.33333333  0.16666667  0.00000000       0.037
   0.38888889  0.16666667  0.00000000       0.037
   0.22222222  0.22222222  0.00000000       0.019
   0.27777778  0.22222222  0.00000000       0.037
   0.33333333  0.22222222  0.00000000       0.037
   0.38888889  0.22222222  0.00000000       0.019
   0.27777778  0.27777778  0.00000000       0.019
   0.33333333  0.27777778  0.00000000       0.037
   0.33333333  0.33333333  0.00000000       0.006
 
 position of ions in fractional coordinates (direct lattice) 
   0.16666667  0.33333333  0.50000000
   0.83333333  0.66666667  0.53610200
   0.83333333  0.66666667  0.46389800
 
 position of ions in cartesian coordinates  (Angst):
  -0.00000000  1.02404395 25.00000000
   1.77369616  2.04808791 26.80510000
   1.77369616  2.04808791 23.19490000
 


--------------------------------------------------------------------------------------------------------


 k-point  1 :   0.0000 0.0000 0.0000  plane waves:    8059
 k-point  2 :   0.0556 0.0000 0.0000  plane waves:    8047
 k-point  3 :   0.1111 0.0000 0.0000  plane waves:    7995
 k-point  4 :   0.1667 0.0000 0.0000  plane waves:    7981
 k-point  5 :   0.2222 0.0000 0.0000  plane waves:    7967
 k-point  6 :   0.2778 0.0000 0.0000  plane waves:    7949
 k-point  7 :   0.3333 0.0000 0.0000  plane waves:    7895
 k-point  8 :   0.3889 0.0000 0.0000  plane waves:    7892
 k-point  9 :   0.4444 0.0000 0.0000  plane waves:    7900
 k-point 10 :   0.5000 0.0000 0.0000  plane waves:    7892
 k-point 11 :   0.0556 0.0556 0.0000  plane waves:    7977
 k-point 12 :   0.1111 0.0556 0.0000  plane waves:    7993
 k-point 13 :   0.1667 0.0556 0.0000  plane waves:    7982
 k-point 14 :   0.2222 0.0556 0.0000  plane waves:    7962
 k-point 15 :   0.2778 0.0556 0.0000  plane waves:    7921
 k-point 16 :   0.3333 0.0556 0.0000  plane waves:    7897
 k-point 17 :   0.3889 0.0556 0.0000  plane waves:    7896
 k-point 18 :   0.4444 0.0556 0.0000  plane waves:    7906
 k-point 19 :   0.1111 0.1111 0.0000  plane waves:    7975
 k-point 20 :   0.1667 0.1111 0.0000  plane waves:    7970
 k-point 21 :   0.2222 0.1111 0.0000  plane waves:    7936
 k-point 22 :   0.2778 0.1111 0.0000  plane waves:    7914
 k-point 23 :   0.3333 0.1111 0.0000  plane waves:    7914
 k-point 24 :   0.3889 0.1111 0.0000  plane waves:    7888
 k-point 25 :   0.4444 0.1111 0.0000  plane waves:    7900
 k-point 26 :   0.1667 0.1667 0.0000  plane waves:    7935
 k-point 27 :   0.2222 0.1667 0.0000  plane waves:    7910
 k-point 28 :   0.2778 0.1667 0.0000  plane waves:    7913
 k-point 29 :   0.3333 0.1667 0.0000  plane waves:    7908
 k-point 30 :   0.3889 0.1667 0.0000  plane waves:    7908
 k-point 31 :   0.2222 0.2222 0.0000  plane waves:    7893
 k-point 32 :   0.2778 0.2222 0.0000  plane waves:    7891
 k-point 33 :   0.3333 0.2222 0.0000  plane waves:    7911
 k-point 34 :   0.3889 0.2222 0.0000  plane waves:    7894
 k-point 35 :   0.2778 0.2778 0.0000  plane waves:    7895
 k-point 36 :   0.3333 0.2778 0.0000  plane waves:    7895
 k-point 37 :   0.3333 0.3333 0.0000  plane waves:    7902

 maximum and minimum number of plane-waves per node :      8059     7888

 maximum number of plane-waves:      8059
 maximum index in each direction: 
   IXMAX=    5   IYMAX=    5   IZMAX=   75
   IXMIN=   -5   IYMIN=   -5   IZMIN=  -75

 NGX is ok and might be reduce to  22
 NGY is ok and might be reduce to  22
 NGZ is ok and might be reduce to 302

 serial   3D FFT for wavefunctions
 parallel 3D FFT for charge:
    minimum data exchange during FFTs selected (reduces bandwidth)


 total amount of memory used by VASP on root node   244748. kBytes
========================================================================

   base      :      30000. kBytes
   nonl-proj :     196116. kBytes
   fftplans  :       2737. kBytes
   grid      :      10830. kBytes
   one-center:        242. kBytes
   wavefun   :       4823. kBytes
 
     INWAV:  cpu time    0.0000: real time    0.0000
 Broyden mixing: mesh for mixing (old mesh)
   NGX = 11   NGY = 11   NGZ =151
  (NGX  = 48   NGY  = 48   NGZ  =640)
  gives a total of  18271 points

 initial charge density was supplied:
 charge density of overlapping atoms calculated
 number of electron      26.0000000 magnetization 
 keeping initial charge density in first step


--------------------------------------------------------------------------------------------------------


 Maximum index for augmentation-charges         1078 (set IRDMAX)


--------------------------------------------------------------------------------------------------------


 First call to EWALD:  gamma=   0.217
 Maximum number of real-space cells 6x 6x 1
 Maximum number of reciprocal cells 1x 1x14

 FEWALD executed in parallel
    FEWALD:  cpu time    0.0010: real time    0.0012


----------------------------------------- Iteration    1(   1)  ---------------------------------------


    POTLOK:  cpu time    0.0450: real time    0.0462
    SETDIJ:  cpu time    0.0070: real time    0.0077
     EDDAV:  cpu time    3.0295: real time    3.0360
 BZINTS: Fermi energy:  2.658588; 26.000000 electrons
         Band energy:-354.142623;  BLOECHL correction: -0.193708
       DOS:  cpu time    0.0080: real time    0.0074
    --------------------------------------------
      LOOP:  cpu time    3.0905: real time    3.0994

 eigenvalue-minimisations  :  3220
 total energy-change (2. order) : 0.1020138E+03  (-0.9899916E+03)
 number of electron      26.0000000 magnetization 
 augmentation part       26.0000000 magnetization 

 Free energy of the ion-electron system (eV)
  ---------------------------------------------------
  alpha Z        PSCENC =         6.90136086
  Ewald energy   TEWEN  =     17617.27313082
  -Hartree energ DENC   =    -19567.92808631
  -exchange      EXHF   =         0.00000000
  -V(xc)+E(xc)   XCENC  =        10.47136438
  PAW double counting   =      1924.23932727    -1842.74905028
  entropy T*S    EENTRO =         0.00000000
  eigenvalues    EBANDS =      -354.14262310
  atomic energy  EATOM  =      2307.94840272
  Solvation  Ediel_sol  =         0.00000000
  ---------------------------------------------------
  free energy    TOTEN  =       102.01382635 eV

  energy without entropy =      102.01382635  energy(sigma->0) =      102.01382635


--------------------------------------------------------------------------------------------------------




----------------------------------------- Iteration    1(   2)  ---------------------------------------


     EDDAV:  cpu time    2.3376: real time    2.3412
 BZINTS: Fermi energy: -1.010410; 26.000000 electrons
         Band energy:-468.616809;  BLOECHL correction:  0.000000
       DOS:  cpu time    0.0020: real time    0.0021
    --------------------------------------------
      LOOP:  cpu time    2.3416: real time    2.3496

 eigenvalue-minimisations  :  2380
 total energy-change (2. order) :-0.1144742E+03  (-0.1104392E+03)
 number of electron      26.0000000 magnetization 
 augmentation part       26.0000000 magnetization 

 Free energy of the ion-electron system (eV)
  ---------------------------------------------------
  alpha Z        PSCENC =         6.90136086
  Ewald energy   TEWEN  =     17617.27313082
  -Hartree energ DENC   =    -19567.92808631
  -exchange      EXHF   =         0.00000000
  -V(xc)+E(xc)   XCENC  =        10.47136438
  PAW double counting   =      1924.23932727    -1842.74905028
  entropy T*S    EENTRO =         0.00000000
  eigenvalues    EBANDS =      -468.61680884
  atomic energy  EATOM  =      2307.94840272
  Solvation  Ediel_sol  =         0.00000000
  ---------------------------------------------------
  free energy    TOTEN  =       -12.46035939 eV

  energy without entropy =      -12.46035939  energy(sigma->0) =      -12.46035939


--------------------------------------------------------------------------------------------------------




----------------------------------------- Iteration    1(   3)  ---------------------------------------


     EDDAV:  cpu time    3.7234: real time    3.7269
 BZINTS: Fermi energy: -2.423488; 26.000000 electrons
         Band energy:-477.264081;  BLOECHL correction:  0.000000
       DOS:  cpu time    0.0020: real time    0.0019
    --------------------------------------------
      LOOP:  cpu time    3.7274: real time    3.7312

 eigenvalue-minimisations  :  3976
 total energy-change (2. order) :-0.8647272E+01  (-0.8647272E+01)
 number of electron      26.0000000 magnetization 
 augmentation part       26.0000000 magnetization 

 Free energy of the ion-electron system (eV)
  ---------------------------------------------------
  alpha Z        PSCENC =         6.90136086
  Ewald energy   TEWEN  =     17617.27313082
  -Hartree energ DENC   =    -19567.92808631
  -exchange      EXHF   =         0.00000000
  -V(xc)+E(xc)   XCENC  =        10.47136438
  PAW double counting   =      1924.23932727    -1842.74905028
  entropy T*S    EENTRO =         0.00000000
  eigenvalues    EBANDS =      -477.26408086
  atomic energy  EATOM  =      2307.94840272
  Solvation  Ediel_sol  =         0.00000000
  ---------------------------------------------------
  free energy    TOTEN  =       -21.10763141 eV

  energy without entropy =      -21.10763141  energy(sigma->0) =      -21.10763141


--------------------------------------------------------------------------------------------------------




----------------------------------------- Iteration    1(   4)  ---------------------------------------


     EDDAV:  cpu time    2.3007: real time    2.3044
 BZINTS: Fermi energy: -2.429358; 26.000000 electrons
         Band energy:-477.309996;  BLOECHL correction:  0.000000
       DOS:  cpu time    0.0020: real time    0.0021
    --------------------------------------------
      LOOP:  cpu time    2.3027: real time    2.3106

 eigenvalue-minimisations  :  2324
 total energy-change (2. order) :-0.4591536E-01  (-0.4591536E-01)
 number of electron      26.0000000 magnetization 
 augmentation part       26.0000000 magnetization 

 Free energy of the ion-electron system (eV)
  ---------------------------------------------------
  alpha Z        PSCENC =         6.90136086
  Ewald energy   TEWEN  =     17617.27313082
  -Hartree energ DENC   =    -19567.92808631
  -exchange      EXHF   =         0.00000000
  -V(xc)+E(xc)   XCENC  =        10.47136438
  PAW double counting   =      1924.23932727    -1842.74905028
  entropy T*S    EENTRO =         0.00000000
  eigenvalues    EBANDS =      -477.30999622
  atomic energy  EATOM  =      2307.94840272
  Solvation  Ediel_sol  =         0.00000000
  ---------------------------------------------------
  free energy    TOTEN  =       -21.15354677 eV

  energy without entropy =      -21.15354677  energy(sigma->0) =      -21.15354677


--------------------------------------------------------------------------------------------------------




----------------------------------------- Iteration    1(   5)  ---------------------------------------


     EDDAV:  cpu time    3.5485: real time    3.5510
 BZINTS: Fermi energy: -2.433368; 26.000000 electrons
         Band energy:-477.310812;  BLOECHL correction:  0.000000
       DOS:  cpu time    0.0020: real time    0.0019
    CHARGE:  cpu time    0.1880: real time    0.1886
    MIXING:  cpu time    0.0020: real time    0.0016
    --------------------------------------------
      LOOP:  cpu time    3.7414: real time    3.7454

 eigenvalue-minimisations  :  3780
 total energy-change (2. order) :-0.8162019E-03  (-0.8162019E-03)
 number of electron      25.9999999 magnetization 
 augmentation part       -2.8914976 magnetization 

 Broyden mixing:
  rms(total) = 0.88070E+00    rms(broyden)= 0.88028E+00
  rms(prec ) = 0.90446E+00
  weight for this iteration     100.00

 Free energy of the ion-electron system (eV)
  ---------------------------------------------------
  alpha Z        PSCENC =         6.90136086
  Ewald energy   TEWEN  =     17617.27313082
  -Hartree energ DENC   =    -19567.92808631
  -exchange      EXHF   =         0.00000000
  -V(xc)+E(xc)   XCENC  =        10.47136438
  PAW double counting   =      1924.23932727    -1842.74905028
  entropy T*S    EENTRO =         0.00000000
  eigenvalues    EBANDS =      -477.31081242
  atomic energy  EATOM  =      2307.94840272
  Solvation  Ediel_sol  =         0.00000000
  ---------------------------------------------------
  free energy    TOTEN  =       -21.15436297 eV

  energy without entropy =      -21.15436297  energy(sigma->0) =      -21.15436297


--------------------------------------------------------------------------------------------------------




----------------------------------------- Iteration    1(   6)  ---------------------------------------


    POTLOK:  cpu time    0.0390: real time    0.0397
    SETDIJ:  cpu time    0.0080: real time    0.0073
     EDDAV:  cpu time    3.2095: real time    3.2119
 BZINTS: Fermi energy: -4.440349; 26.000000 electrons
         Band energy:-529.602551;  BLOECHL correction:  0.000000
       DOS:  cpu time    0.0010: real time    0.0017
    CHARGE:  cpu time    0.1880: real time    0.1876
    MIXING:  cpu time    0.0020: real time    0.0016
    --------------------------------------------
      LOOP:  cpu time    3.4475: real time    3.4529

 eigenvalue-minimisations  :  3416
 total energy-change (2. order) : 0.9993961E+00  (-0.4689446E+01)
 number of electron      25.9999998 magnetization 
 augmentation part       -2.2163549 magnetization 

 Broyden mixing:
  rms(total) = 0.64532E+00    rms(broyden)= 0.64519E+00
  rms(prec ) = 0.67722E+00
  weight for this iteration     100.00

 eigenvalues of (default mixing * dielectric matrix)
  average eigenvalue GAMMA=   0.6082
  0.6082

 Free energy of the ion-electron system (eV)
  ---------------------------------------------------
  alpha Z        PSCENC =         6.90136086
  Ewald energy   TEWEN  =     17617.27313082
  -Hartree energ DENC   =    -19511.92043706
  -exchange      EXHF   =         0.00000000
  -V(xc)+E(xc)   XCENC  =         8.95432101
  PAW double counting   =      1810.33650663    -1730.04570103
  entropy T*S    EENTRO =         0.00000000
  eigenvalues    EBANDS =      -529.60255085
  atomic energy  EATOM  =      2307.94840272
  Solvation  Ediel_sol  =         0.00000000
  ---------------------------------------------------
  free energy    TOTEN  =       -20.15496689 eV

  energy without entropy =      -20.15496689  energy(sigma->0) =      -20.15496689


--------------------------------------------------------------------------------------------------------




----------------------------------------- Iteration    1(   7)  ---------------------------------------


    POTLOK:  cpu time    0.0400: real time    0.0395
    SETDIJ:  cpu time    0.0070: real time    0.0073
     EDDAV:  cpu time    3.2935: real time    3.2971
 BZINTS: Fermi energy: -3.156288; 26.000000 electrons
         Band energy:-495.049552;  BLOECHL correction:  0.000000
       DOS:  cpu time    0.0020: real time    0.0017
    CHARGE:  cpu time    0.1870: real time    0.1869
    MIXING:  cpu time    0.0020: real time    0.0016
    --------------------------------------------
      LOOP:  cpu time    3.5315: real time    3.5368

 eigenvalue-minimisations  :  3500
 total energy-change (2. order) : 0.1204330E+01  (-0.1746546E+01)
 number of electron      25.9999999 magnetization 
 augmentation part       -2.6078943 magnetization 

 Broyden mixing:
  rms(total) = 0.27438E+00    rms(broyden)= 0.27427E+00
  rms(prec ) = 0.27865E+00
  weight for this iteration     100.00

 eigenvalues of (default mixing * dielectric matrix)
  average eigenvalue GAMMA=   1.4766
  2.4573  0.4959

 Free energy of the ion-electron system (eV)
  ---------------------------------------------------
  alpha Z        PSCENC =         6.90136086
  Ewald energy   TEWEN  =     17617.27313082
  -Hartree energ DENC   =    -19546.58367655
  -exchange      EXHF   =         0.00000000
  -V(xc)+E(xc)   XCENC  =         9.58698696
  PAW double counting   =      1880.29144928    -1799.31873869
  entropy T*S    EENTRO =         0.00000000
  eigenvalues    EBANDS =      -495.04955211
  atomic energy  EATOM  =      2307.94840272
  Solvation  Ediel_sol  =         0.00000000
  ---------------------------------------------------
  free energy    TOTEN  =       -18.95063670 eV

  energy without entropy =      -18.95063670  energy(sigma->0) =      -18.95063670


--------------------------------------------------------------------------------------------------------




----------------------------------------- Iteration    1(   8)  ---------------------------------------


    POTLOK:  cpu time    0.0390: real time    0.0389
    SETDIJ:  cpu time    0.0070: real time    0.0073
     EDDAV:  cpu time    3.2785: real time    3.2817
 BZINTS: Fermi energy: -3.489935; 26.000000 electrons
         Band energy:-497.754654;  BLOECHL correction:  0.000000
       DOS:  cpu time    0.0020: real time    0.0017
    CHARGE:  cpu time    0.1890: real time    0.1891
    MIXING:  cpu time    0.0010: real time    0.0015
    --------------------------------------------
      LOOP:  cpu time    3.5165: real time    3.5228

 eigenvalue-minimisations  :  3500
 total energy-change (2. order) : 0.1065174E+00  (-0.1890450E+00)
 number of electron      25.9999999 magnetization 
 augmentation part       -2.4847615 magnetization 

 Broyden mixing:
  rms(total) = 0.10387E+00    rms(broyden)= 0.10385E+00
  rms(prec ) = 0.10732E+00
  weight for this iteration     100.00

 eigenvalues of (default mixing * dielectric matrix)
  average eigenvalue GAMMA=   1.3395
  0.4783  1.1325  2.4076

 Free energy of the ion-electron system (eV)
  ---------------------------------------------------
  alpha Z        PSCENC =         6.90136086
  Ewald energy   TEWEN  =     17617.27313082
  -Hartree energ DENC   =    -19543.38066418
  -exchange      EXHF   =         0.00000000
  -V(xc)+E(xc)   XCENC  =         9.25686953
  PAW double counting   =      1857.67276683    -1776.76133235
  entropy T*S    EENTRO =         0.00000000
  eigenvalues    EBANDS =      -497.75465356
  atomic energy  EATOM  =      2307.94840272
  Solvation  Ediel_sol  =         0.00000000
  ---------------------------------------------------
  free energy    TOTEN  =       -18.84411933 eV

  energy without entropy =      -18.84411933  energy(sigma->0) =      -18.84411933


--------------------------------------------------------------------------------------------------------




----------------------------------------- Iteration    1(   9)  ---------------------------------------


    POTLOK:  cpu time    0.0390: real time    0.0391
    SETDIJ:  cpu time    0.0070: real time    0.0073
     EDDAV:  cpu time    3.4615: real time    3.4653
 BZINTS: Fermi energy: -3.253114; 26.000000 electrons
         Band energy:-493.463015;  BLOECHL correction:  0.000000
       DOS:  cpu time    0.0020: real time    0.0017
    CHARGE:  cpu time    0.1870: real time    0.1867
    MIXING:  cpu time    0.0010: real time    0.0015
    --------------------------------------------
      LOOP:  cpu time    3.6984: real time    3.7041

 eigenvalue-minimisations  :  3696
 total energy-change (2. order) : 0.2954794E-01  (-0.2337068E-01)
 number of electron      25.9999999 magnetization 
 augmentation part       -2.5301234 magnetization 

 Broyden mixing:
  rms(total) = 0.16212E-01    rms(broyden)= 0.16194E-01
  rms(prec ) = 0.16609E-01
  weight for this iteration     100.00

 eigenvalues of (default mixing * dielectric matrix)
  average eigenvalue GAMMA=   1.4490
  2.5731  0.4793  1.0448  1.6990

 Free energy of the ion-electron system (eV)
  ---------------------------------------------------
  alpha Z        PSCENC =         6.90136086
  Ewald energy   TEWEN  =     17617.27313082
  -Hartree energ DENC   =    -19547.90807815
  -exchange      EXHF   =         0.00000000
  -V(xc)+E(xc)   XCENC  =         9.39562108
  PAW double counting   =      1868.22562427    -1787.18761815
  entropy T*S    EENTRO =         0.00000000
  eigenvalues    EBANDS =      -493.46301485
  atomic energy  EATOM  =      2307.94840272
  Solvation  Ediel_sol  =         0.00000000
  ---------------------------------------------------
  free energy    TOTEN  =       -18.81457139 eV

  energy without entropy =      -18.81457139  energy(sigma->0) =      -18.81457139


--------------------------------------------------------------------------------------------------------




----------------------------------------- Iteration    1(  10)  ---------------------------------------


    POTLOK:  cpu time    0.0380: real time    0.0393
    SETDIJ:  cpu time    0.0070: real time    0.0072
     EDDAV:  cpu time    3.4285: real time    3.4615
 BZINTS: Fermi energy: -3.171633; 26.000000 electrons
         Band energy:-492.241661;  BLOECHL correction:  0.000000
       DOS:  cpu time    0.0010: real time    0.0015
    CHARGE:  cpu time    0.1870: real time    0.1869
    MIXING:  cpu time    0.0020: real time    0.0016
    --------------------------------------------
      LOOP:  cpu time    3.6654: real time    3.7016

 eigenvalue-minimisations  :  3640
 total energy-change (2. order) : 0.6819336E-03  (-0.5207188E-03)
 number of electron      25.9999999 magnetization 
 augmentation part       -2.5307989 magnetization 

 Broyden mixing:
  rms(total) = 0.47371E-02    rms(broyden)= 0.47356E-02
  rms(prec ) = 0.52854E-02
  weight for this iteration     100.00

 eigenvalues of (default mixing * dielectric matrix)
  average eigenvalue GAMMA=   1.4891
  0.4792  2.5433  1.0379  1.6926  1.6926

 Free energy of the ion-electron system (eV)
  ---------------------------------------------------
  alpha Z        PSCENC =         6.90136086
  Ewald energy   TEWEN  =     17617.27313082
  -Hartree energ DENC   =    -19549.19453035
  -exchange      EXHF   =         0.00000000
  -V(xc)+E(xc)   XCENC  =         9.43436873
  PAW double counting   =      1869.33278333    -1788.26774440
  entropy T*S    EENTRO =         0.00000000
  eigenvalues    EBANDS =      -492.24166116
  atomic energy  EATOM  =      2307.94840272
  Solvation  Ediel_sol  =         0.00000000
  ---------------------------------------------------
  free energy    TOTEN  =       -18.81388946 eV

  energy without entropy =      -18.81388946  energy(sigma->0) =      -18.81388946


--------------------------------------------------------------------------------------------------------




----------------------------------------- Iteration    1(  11)  ---------------------------------------


    POTLOK:  cpu time    0.0390: real time    0.0391
    SETDIJ:  cpu time    0.0070: real time    0.0073
     EDDAV:  cpu time    3.6374: real time    3.7220
 BZINTS: Fermi energy: -3.161872; 26.000000 electrons
         Band energy:-491.243620;  BLOECHL correction:  0.000000
       DOS:  cpu time    0.0020: real time    0.0017
    CHARGE:  cpu time    0.1970: real time    0.1979
    MIXING:  cpu time    0.0020: real time    0.0017
    --------------------------------------------
      LOOP:  cpu time    3.8854: real time    3.9729

 eigenvalue-minimisations  :  3808
 total energy-change (2. order) : 0.1611406E-03  (-0.9772512E-04)
 number of electron      25.9999999 magnetization 
 augmentation part       -2.5317645 magnetization 

 Broyden mixing:
  rms(total) = 0.30136E-02    rms(broyden)= 0.30123E-02
  rms(prec ) = 0.33866E-02
  weight for this iteration     100.00

 eigenvalues of (default mixing * dielectric matrix)
  average eigenvalue GAMMA=   1.4991
  2.5097  2.5097  0.4792  1.4691  0.9360  1.0908

 Free energy of the ion-electron system (eV)
  ---------------------------------------------------
  alpha Z        PSCENC =         6.90136086
  Ewald energy   TEWEN  =     17617.27313082
  -Hartree energ DENC   =    -19550.18362121
  -exchange      EXHF   =         0.00000000
  -V(xc)+E(xc)   XCENC  =         9.43854374
  PAW double counting   =      1868.55264305    -1787.50056875
  entropy T*S    EENTRO =         0.00000000
  eigenvalues    EBANDS =      -491.24361955
  atomic energy  EATOM  =      2307.94840272
  Solvation  Ediel_sol  =         0.00000000
  ---------------------------------------------------
  free energy    TOTEN  =       -18.81372832 eV

  energy without entropy =      -18.81372832  energy(sigma->0) =      -18.81372832


--------------------------------------------------------------------------------------------------------




----------------------------------------- Iteration    1(  12)  ---------------------------------------


    POTLOK:  cpu time    0.0400: real time    0.0410
    SETDIJ:  cpu time    0.0080: real time    0.0074
     EDDAV:  cpu time    3.3045: real time    3.3098
 BZINTS: Fermi energy: -3.150198; 26.000000 electrons
         Band energy:-490.461182;  BLOECHL correction:  0.000000
       DOS:  cpu time    0.0020: real time    0.0016
    CHARGE:  cpu time    0.1890: real time    0.1894
    MIXING:  cpu time    0.0010: real time    0.0017
    --------------------------------------------
      LOOP:  cpu time    3.5465: real time    3.5534

 eigenvalue-minimisations  :  3248
 total energy-change (2. order) : 0.1052496E-03  (-0.1580379E-04)
 number of electron      25.9999999 magnetization 
 augmentation part       -2.5310556 magnetization 

 Broyden mixing:
  rms(total) = 0.14619E-02    rms(broyden)= 0.14619E-02
  rms(prec ) = 0.17907E-02
  weight for this iteration     100.00

 eigenvalues of (default mixing * dielectric matrix)
  average eigenvalue GAMMA=   1.6575
  3.1430  2.4474  0.4792  1.0014  1.0014  1.8199  1.7103

 Free energy of the ion-electron system (eV)
  ---------------------------------------------------
  alpha Z        PSCENC =         6.90136086
  Ewald energy   TEWEN  =     17617.27313082
  -Hartree energ DENC   =    -19550.96958094
  -exchange      EXHF   =         0.00000000
  -V(xc)+E(xc)   XCENC  =         9.44643121
  PAW double counting   =      1868.09228428    -1787.04447038
  entropy T*S    EENTRO =         0.00000000
  eigenvalues    EBANDS =      -490.46118164
  atomic energy  EATOM  =      2307.94840272
  Solvation  Ediel_sol  =         0.00000000
  ---------------------------------------------------
  free energy    TOTEN  =       -18.81362307 eV

  energy without entropy =      -18.81362307  energy(sigma->0) =      -18.81362307


--------------------------------------------------------------------------------------------------------




----------------------------------------- Iteration    1(  13)  ---------------------------------------


    POTLOK:  cpu time    0.0510: real time    0.0514
    SETDIJ:  cpu time    0.0070: real time    0.0074
     EDDAV:  cpu time    2.9665: real time    2.9711
 BZINTS: Fermi energy: -3.135008; 26.000000 electrons
         Band energy:-489.573217;  BLOECHL correction:  0.000000
       DOS:  cpu time    0.0020: real time    0.0015
    CHARGE:  cpu time    0.1890: real time    0.1903
    MIXING:  cpu time    0.0020: real time    0.0018
    --------------------------------------------
      LOOP:  cpu time    3.2185: real time    3.2258

 eigenvalue-minimisations  :  2884
 total energy-change (2. order) :-0.3068574E-04  (-0.1210231E-04)
 number of electron      25.9999999 magnetization 
 augmentation part       -2.5303679 magnetization 

 Broyden mixing:
  rms(total) = 0.74280E-03    rms(broyden)= 0.74275E-03
  rms(prec ) = 0.92265E-03
  weight for this iteration     100.00

 eigenvalues of (default mixing * dielectric matrix)
  average eigenvalue GAMMA=   1.7813
  3.9956  2.6499  2.3586  0.4792  1.4087  1.4087  0.9750  0.9750

 Free energy of the ion-electron system (eV)
  ---------------------------------------------------
  alpha Z        PSCENC =         6.90136086
  Ewald energy   TEWEN  =     17617.27313082
  -Hartree energ DENC   =    -19551.86200958
  -exchange      EXHF   =         0.00000000
  -V(xc)+E(xc)   XCENC  =         9.45074366
  PAW double counting   =      1867.69311158    -1786.64517715
  entropy T*S    EENTRO =         0.00000000
  eigenvalues    EBANDS =      -489.57321667
  atomic energy  EATOM  =      2307.94840272
  Solvation  Ediel_sol  =         0.00000000
  ---------------------------------------------------
  free energy    TOTEN  =       -18.81365375 eV

  energy without entropy =      -18.81365375  energy(sigma->0) =      -18.81365375


--------------------------------------------------------------------------------------------------------




----------------------------------------- Iteration    1(  14)  ---------------------------------------


    POTLOK:  cpu time    0.0400: real time    0.0406
    SETDIJ:  cpu time    0.0080: real time    0.0075
     EDDAV:  cpu time    2.7156: real time    2.7195
 BZINTS: Fermi energy: -3.118825; 26.000000 electrons
         Band energy:-489.038410;  BLOECHL correction:  0.000000
       DOS:  cpu time    0.0020: real time    0.0017
    CHARGE:  cpu time    0.1980: real time    0.1991
    MIXING:  cpu time    0.0020: real time    0.0019
    --------------------------------------------
      LOOP:  cpu time    2.9665: real time    2.9732

 eigenvalue-minimisations  :  2632
 total energy-change (2. order) :-0.9196959E-04  (-0.2914722E-05)
 number of electron      25.9999999 magnetization 
 augmentation part       -2.5302512 magnetization 

 Broyden mixing:
  rms(total) = 0.46494E-03    rms(broyden)= 0.46492E-03
  rms(prec ) = 0.54176E-03
  weight for this iteration     100.00

 eigenvalues of (default mixing * dielectric matrix)
  average eigenvalue GAMMA=   1.8984
  5.1339  2.8075  2.4523  0.4792  1.6519  1.6519  1.0203  0.9444  0.9444

[...]
      LOOP:  cpu time    4.5113: real time    4.5210

 Broyden mixing:
  rms(total) = 0.53796E-04    rms(broyden)= 0.53794E-04
  rms(prec ) = 0.61749E-04
  weight for this iteration     100.00

 eigenvalues of (default mixing * dielectric matrix)
  average eigenvalue GAMMA=   2.2850
  6.9084  5.9081  3.0625  3.0625  2.0113  2.0113  1.2756  1.2756  0.8064  0.9695
  0.9695  0.9318  0.5128

 Free energy of the ion-electron system (eV)
  ---------------------------------------------------
  -Hartree energ DENC   =        -0.18006547
  -V(xc)+E(xc)   XCENC  =         0.00397814
  PAW double counting   =         0.00461640       -0.00454785
  entropy T*S    EENTRO =         0.00000000
  eigenvalues    EBANDS =        -0.04735026
  ---------------------------------------------------
  free energy    TOTEN  =        -0.22336905 eV

  energy without entropy =       -0.22336905


----------------------------------------- Iteration    3(  16)  ---------------------------------------


   POT+DIJ:  cpu time    0.0990: real time    0.0993
    HAMIL1:  cpu time    0.6409: real time    0.6432
    LRDIAG:  cpu time    0.0770: real time    0.0762
    LRDIIS:  cpu time    3.1875: real time    3.1922
    LRDIAG:  cpu time    0.0680: real time    0.0687
    MIXING:  cpu time    0.0020: real time    0.0019
    --------------------------------------------
      LOOP:  cpu time    4.4713: real time    4.4812

 Broyden mixing:
  rms(total) = 0.18320E-04    rms(broyden)= 0.18317E-04
  rms(prec ) = 0.22793E-04
  weight for this iteration     100.00

 eigenvalues of (default mixing * dielectric matrix)
  average eigenvalue GAMMA=   2.3344
  7.2910  6.2823  3.3371  3.3371  2.1185  2.1185  1.3923  1.3923  1.2360  0.8063
  0.9500  0.9500  0.9570  0.5128

 Free energy of the ion-electron system (eV)
  ---------------------------------------------------
  -Hartree energ DENC   =        -0.18004530
  -V(xc)+E(xc)   XCENC  =         0.00397556
  PAW double counting   =         0.00461252       -0.00454366
  entropy T*S    EENTRO =         0.00000000
  eigenvalues    EBANDS =        -0.04736145
  ---------------------------------------------------
  free energy    TOTEN  =        -0.22336234 eV

  energy without entropy =       -0.22336234


----------------------------------------- Iteration    3(  17)  ---------------------------------------


   POT+DIJ:  cpu time    0.1000: real time    0.1006
    HAMIL1:  cpu time    0.6419: real time    0.6431
    LRDIAG:  cpu time    0.0750: real time    0.0759
    LRDIIS:  cpu time    3.3665: real time    3.3705
    LRDIAG:  cpu time    0.0690: real time    0.0693
    MIXING:  cpu time    0.0020: real time    0.0020
    --------------------------------------------
      LOOP:  cpu time    4.6523: real time    4.6625

 Broyden mixing:
  rms(total) = 0.14880E-04    rms(broyden)= 0.14879E-04
  rms(prec ) = 0.17111E-04
  weight for this iteration     100.00

 eigenvalues of (default mixing * dielectric matrix)
  average eigenvalue GAMMA=   2.4203
  7.8650  6.6848  3.6787  3.6787  2.3708  2.3708  1.8753  1.2767  1.2767  0.8063
  1.0029  1.0029  0.9510  0.9510  0.5128

 Free energy of the ion-electron system (eV)
  ---------------------------------------------------
  -Hartree energ DENC   =        -0.18003888
  -V(xc)+E(xc)   XCENC  =         0.00397443
  PAW double counting   =         0.00462088       -0.00455208
  entropy T*S    EENTRO =         0.00000000
  eigenvalues    EBANDS =        -0.04735853
  ---------------------------------------------------
  free energy    TOTEN  =        -0.22335418 eV

  energy without entropy =       -0.22335418


----------------------------------------- Iteration    3(  18)  ---------------------------------------


   POT+DIJ:  cpu time    0.1010: real time    0.1022
    HAMIL1:  cpu time    0.6389: real time    0.6400
    LRDIAG:  cpu time    0.0760: real time    0.0760
    LRDIIS:  cpu time    3.1425: real time    3.1476
    LRDIAG:  cpu time    0.0740: real time    0.0742
    MIXING:  cpu time    0.0020: real time    0.0020
    --------------------------------------------
      LOOP:  cpu time    4.4303: real time    4.4408

 Broyden mixing:
  rms(total) = 0.47323E-05    rms(broyden)= 0.47315E-05
  rms(prec ) = 0.58712E-05
  weight for this iteration     100.00

 eigenvalues of (default mixing * dielectric matrix)
  average eigenvalue GAMMA=   2.5008
  8.1853  6.8913  4.2337  3.7036  2.4869  2.4869  2.4114  1.8699  1.2766  1.2766
  0.8063  0.9900  0.9900  0.9457  0.9457  0.5128

 Free energy of the ion-electron system (eV)
  ---------------------------------------------------
  -Hartree energ DENC   =        -0.18004369
  -V(xc)+E(xc)   XCENC  =         0.00397349
  PAW double counting   =         0.00461586       -0.00454708
  entropy T*S    EENTRO =         0.00000000
  eigenvalues    EBANDS =        -0.04735207
  ---------------------------------------------------
  free energy    TOTEN  =        -0.22335349 eV

  energy without entropy =       -0.22335349


----------------------------------------- Iteration    3(  19)  ---------------------------------------


   POT+DIJ:  cpu time    0.1030: real time    0.1031
    HAMIL1:  cpu time    0.6449: real time    0.6452
    LRDIAG:  cpu time    0.0760: real time    0.0765
    LRDIIS:  cpu time    3.3545: real time    3.3564
    LRDIAG:  cpu time    0.0690: real time    0.0690
    MIXING:  cpu time    0.0020: real time    0.0022
    --------------------------------------------
      LOOP:  cpu time    4.6613: real time    4.6672

 Broyden mixing:
  rms(total) = 0.34606E-05    rms(broyden)= 0.34604E-05
  rms(prec ) = 0.38873E-05
  weight for this iteration     100.00

 eigenvalues of (default mixing * dielectric matrix)
  average eigenvalue GAMMA=   2.4931
  8.2884  7.2076  4.4867  3.9401  2.7570  2.7570  2.0054  2.0054  1.2754  1.2754
  1.2027  0.8063  0.9845  0.9669  0.9669  0.9450  0.5128

 Free energy of the ion-electron system (eV)
  ---------------------------------------------------
  -Hartree energ DENC   =        -0.18004699
  -V(xc)+E(xc)   XCENC  =         0.00397318
  PAW double counting   =         0.00461323       -0.00454446
  entropy T*S    EENTRO =         0.00000000
  eigenvalues    EBANDS =        -0.04734893
  ---------------------------------------------------
  free energy    TOTEN  =        -0.22335397 eV

  energy without entropy =       -0.22335397


----------------------------------------- Iteration    3(  20)  ---------------------------------------


   POT+DIJ:  cpu time    0.1040: real time    0.1045
    HAMIL1:  cpu time    0.6479: real time    0.6497
    LRDIAG:  cpu time    0.0760: real time    0.0767
    LRDIIS:  cpu time    3.5495: real time    3.5517
    LRDIAG:  cpu time    0.0690: real time    0.0690
    MIXING:  cpu time    0.0020: real time    0.0022
    --------------------------------------------
      LOOP:  cpu time    4.8483: real time    4.8556

 Broyden mixing:
  rms(total) = 0.15626E-05    rms(broyden)= 0.15617E-05
  rms(prec ) = 0.19084E-05
  weight for this iteration     100.00

 eigenvalues of (default mixing * dielectric matrix)
  average eigenvalue GAMMA=   2.5290
  8.4269  7.4036  4.7130  4.2777  2.9144  2.9144  2.1197  2.1197  1.8473  1.2761
  1.2761  0.8063  1.0609  0.9872  0.9872  0.9397  0.9397  0.5128

 Free energy of the ion-electron system (eV)
  ---------------------------------------------------
  -Hartree energ DENC   =        -0.18004557
  -V(xc)+E(xc)   XCENC  =         0.00397298
  PAW double counting   =         0.00461758       -0.00454884
  entropy T*S    EENTRO =         0.00000000
  eigenvalues    EBANDS =        -0.04735037
  ---------------------------------------------------
  free energy    TOTEN  =        -0.22335421 eV

  energy without entropy =       -0.22335421


----------------------------------------- Iteration    3(  21)  ---------------------------------------


   POT+DIJ:  cpu time    0.1140: real time    0.1140
    HAMIL1:  cpu time    0.6389: real time    0.6399
    LRDIAG:  cpu time    0.0800: real time    0.0806
    LRDIIS:  cpu time    3.4605: real time    3.4645
    LRDIAG:  cpu time    0.0690: real time    0.0694
    MIXING:  cpu time    0.0020: real time    0.0023
    --------------------------------------------
      LOOP:  cpu time    4.7713: real time    4.7897

 Broyden mixing:
  rms(total) = 0.95856E-06    rms(broyden)= 0.95850E-06
  rms(prec ) = 0.11437E-05
  weight for this iteration     100.00

 eigenvalues of (default mixing * dielectric matrix)
  average eigenvalue GAMMA=   2.5469
  8.4998  7.6038  4.9405  4.6457  3.0992  3.0992  2.2563  2.2563  1.9790  1.2692
  1.2692  1.2631  0.8063  1.0254  0.9447  0.9447  0.9877  0.9877  0.5128

 Free energy of the ion-electron system (eV)
  ---------------------------------------------------
  -Hartree energ DENC   =        -0.18004511
  -V(xc)+E(xc)   XCENC  =         0.00397290
  PAW double counting   =         0.00461731       -0.00454855
  entropy T*S    EENTRO =         0.00000000
  eigenvalues    EBANDS =        -0.04735067
  ---------------------------------------------------
  free energy    TOTEN  =        -0.22335411 eV

  energy without entropy =       -0.22335411


------------------------ aborting loop because EDIFF is reached ----------------------------------------


 change of polarisation eV/A/(eV/A) component  3 :     0.000    -0.000     0.433
 dielectric tensor                  component  3 :     0.000    -0.000     1.144


--------------------------------------------------------------------------------------------------------


    FORLOC:  cpu time    0.0030: real time    0.0023
    FORNL :  cpu time    0.2140: real time    0.2143
    STRESS:  cpu time    3.3845: real time    3.3867
    FORCOR:  cpu time    0.0390: real time    0.0395
    OFIELD:  cpu time    0.0010: real time    0.0003

  Hirshfeld charges:
            ion         q(e)     
   ------------------------------
      1     Mo          0.243
      2     Te         -0.122
      3     Te         -0.122

  Tkatchenko/Scheffler method for vdW energy calculation
  ---------------------------------------------------------------------------------------------

  Parameters of vdW forcefield:
            C6ts              R0ts           ALPHAts        RELVOL
            (au)              (au)            (au)                
   ---------------------------------------------------------------
   Mo       1109.385          4.153         91.820          1.038
   Te        403.780          4.228         38.018          1.010
   Te        403.780          4.228         38.018          1.010
  Edisp (eV):   -0.71631
    FORVDW:  cpu time    0.1200: real time    0.1221
    FORLOC:  cpu time    0.0030: real time    0.0023
    FORNL :  cpu time    0.2140: real time    0.2144
    STRESS:  cpu time    3.3765: real time    3.3791
    FORCOR:  cpu time    0.0400: real time    0.0400
    OFIELD:  cpu time    0.0010: real time    0.0003

  Hirshfeld charges:
            ion         q(e)     
   ------------------------------
      1     Mo          0.243
      2     Te         -0.122
      3     Te         -0.122

  Tkatchenko/Scheffler method for vdW energy calculation
  ---------------------------------------------------------------------------------------------

  Parameters of vdW forcefield:
            C6ts              R0ts           ALPHAts        RELVOL
            (au)              (au)            (au)                
   ---------------------------------------------------------------
   Mo       1109.385          4.153         91.820          1.038
   Te        403.780          4.228         38.018          1.010
   Te        403.780          4.228         38.018          1.010
  Edisp (eV):   -0.71631
    FORVDW:  cpu time    0.1190: real time    0.1217
    FORNLD:  cpu time    2.5136: real time    2.5153

 PIEZOELECTRIC TENSOR FIELD DIRECTION 3  (e Angst)
 -----------------------------------------------------------------------------
     0.00000  0.00000 -0.00000           ( -0.00000  0.00000 -0.00000)
     0.00000  0.00000  0.00000           (  0.00000 -0.00000  0.00000)
     0.00000  0.00000  0.00000           ( -0.00000  0.00000 -0.00000)

 PIEZOELECTRIC TENSOR FIELD DIRECTION 3  (C/m^2)
 -----------------------------------------------------------------------------
     0.00000  0.00000 -0.00000
     0.00000  0.00000  0.00000
     0.00000  0.00000  0.00000


      POSITION         DIRECTION 3           BORN EFFECTIVE CHARGE    (rigid.aug.   ionic)
 -----------------------------------------------------------------------------------------
     -0.00000      1.02404     25.00000     0.00000 -0.00000 -0.18589 (  0.16229 14.00000)
      1.77370      2.04809     26.80510    -0.00000 -0.00000  0.08894 (  1.18402  6.00000)
      1.77370      2.04809     23.19490     0.00000  0.00000  0.08894 (  1.18402  6.00000)
 -----------------------------------------------------------------------------------------
    total drift (improves with k-points):  -0.00000  0.00000 -0.00801




--------------------------------------------------------------------------------------------------------


  LATTYP: Found a hexagonal cell.
 ALAT       =     3.5473923118
 C/A-ratio  =    14.0948605637
  
  Lattice vectors:
  
 A1 = (   3.5473923118,   0.0000000000,   0.0000000000)
 A2 = (  -1.7736961559,   3.0721318592,   0.0000000000)
 A3 = (   0.0000000000,   0.0000000000,  50.0000000000)


Analysis of symmetry for initial positions (statically):
=====================================================================
 Subroutine PRICEL returns:
 Original cell was already a primitive cell.
 

 Routine SETGRP: Setting up the symmetry group for a 
 hexagonal supercell.


 Subroutine GETGRP returns: Found 12 space group operations
 (whereof  4 operations were pure point group operations)
 out of a pool of 24 trial point group operations.


The static configuration has the point symmetry C_2v.
 The point group associated with its full space group is D_3h.


Analysis of symmetry for dynamics (positions and initial velocities):
=====================================================================
 Subroutine PRICEL returns:
 Original cell was already a primitive cell.
 

 Routine SETGRP: Setting up the symmetry group for a 
 hexagonal supercell.


 Subroutine GETGRP returns: Found 12 space group operations
 (whereof  4 operations were pure point group operations)
 out of a pool of 24 trial point group operations.


The dynamic configuration has the point symmetry C_2v.
 The point group associated with its full space group is D_3h.


 Subroutine INISYM returns: Found 12 space group operations
 (whereof  4 operations are pure point group operations),
 and found     1 'primitive' translations



 MACROSCOPIC STATIC DIELECTRIC TENSOR (including local field effects in DFT)
 ------------------------------------------------------
           3.609281     0.000000     0.000000
           0.000000     3.609281     0.000000
           0.000000     0.000000     1.143926
 ------------------------------------------------------



--------------------------------------------------------------------------------------------------------


  LATTYP: Found a hexagonal cell.
 ALAT       =     3.5473923118
 C/A-ratio  =    14.0948605637
  
  Lattice vectors:
  
 A1 = (   3.5473923118,   0.0000000000,   0.0000000000)
 A2 = (  -1.7736961559,   3.0721318592,   0.0000000000)
 A3 = (   0.0000000000,   0.0000000000,  50.0000000000)


Analysis of symmetry for initial positions (statically):
=====================================================================
 Subroutine PRICEL returns:
 Original cell was already a primitive cell.
 

 Routine SETGRP: Setting up the symmetry group for a 
 hexagonal supercell.


 Subroutine GETGRP returns: Found 12 space group operations
 (whereof  4 operations were pure point group operations)
 out of a pool of 24 trial point group operations.


The static configuration has the point symmetry C_2v.
 The point group associated with its full space group is D_3h.


Analysis of symmetry for dynamics (positions and initial velocities):
=====================================================================
 Subroutine PRICEL returns:
 Original cell was already a primitive cell.
 

 Routine SETGRP: Setting up the symmetry group for a 
 hexagonal supercell.


 Subroutine GETGRP returns: Found 12 space group operations
 (whereof  4 operations were pure point group operations)
 out of a pool of 24 trial point group operations.


The dynamic configuration has the point symmetry C_2v.
 The point group associated with its full space group is D_3h.


 Subroutine INISYM returns: Found 12 space group operations
 (whereof  4 operations are pure point group operations),
 and found     1 'primitive' translations



--------------------------------------------------------------------------------------------------------




 MACROSCOPIC STATIC DIELECTRIC TENSOR (including local field effects in DFT)
 ------------------------------------------------------
           3.609281     0.000000     0.000000
           0.000000     3.609281     0.000000
           0.000000     0.000000     1.143926
 ------------------------------------------------------


 PIEZOELECTRIC TENSOR  for field in x, y, z        (e  Angst)
          XX          YY          ZZ          XY          YZ          ZX
  --------------------------------------------------------------------------------
  x    -0.00262     0.00152    -0.00033    -1.61736     0.00000     0.00000
  y    -1.62042     1.62262     0.00132     0.00000     0.00000     0.00000
  z     0.00000     0.00000     0.00000     0.00000     0.00000    -0.00000

 PIEZOELECTRIC TENSOR  for field in x, y, z        (C/m^2)
          XX          YY          ZZ          XY          YZ          ZX
  --------------------------------------------------------------------------------
  x     0.00000     0.00000     0.00000    -0.04762     0.00000     0.00000
  y    -0.04762     0.04762     0.00000     0.00000     0.00000     0.00000
  z     0.00000     0.00000     0.00000     0.00000     0.00000     0.00000
 
 BORN EFFECTIVE CHARGES (in e, cummulative output)
 -------------------------------------------------
 ion    1
    1    -3.22506    -0.00078     0.00000
    2     0.00000    -3.22534     0.00000
    3     0.00000    -0.00000    -0.18589
 ion    2
    1     1.60722    -0.00032    -0.00026
    2     0.00000     1.60737     0.00080
    3    -0.00000    -0.00000     0.08894
 ion    3
    1     1.60722    -0.00032     0.00026
    2     0.00000     1.60737    -0.00080
    3     0.00000     0.00000     0.08894


--------------------------------------------------------------------------------------------------------


 writing wavefunctions
     LOOP+:  cpu time 1115.9114: real time 1118.3564
    4ORBIT:  cpu time    0.0000: real time    0.0000
 BZINTS: Fermi energy: -3.045498; 26.000000 electrons
         Band energy:-488.508752;  BLOECHL correction:  0.000000

 total amount of memory used by VASP on root node   244748. kBytes
========================================================================

   base      :      30000. kBytes
   nonl-proj :     196116. kBytes
   fftplans  :       2737. kBytes
   grid      :      10830. kBytes
   one-center:        242. kBytes
   wavefun   :       4823. kBytes
 
  
  
 General timing and accounting informations for this job:
 ========================================================
  
                  Total CPU time used (sec):     1118.521
                            User time (sec):     1094.655
                          System time (sec):       23.866
                         Elapsed time (sec):     1122.397
  
                   Maximum memory used (kb):     1092164.
                   Average memory used (kb):           0.
  
                          Minor page faults:      4151558
                          Major page faults:           10
                 Voluntary context switches:         5317
