unknown system                          
           1
     3.547392    0.000000    0.000000
    -1.773696    3.072132    0.000000
     0.000000    0.000000   50.000000
   Mo   Te
   1   2
Direct configuration=     1
   0.16666667  0.33333333  0.50000000
   0.83333333  0.66666667  0.53610200
   0.83333333  0.66666667  0.46389800
