5
Lattice="5.89320292041176 0.0 0.0 0.0 5.89320292041176 0.0 0.0 0.0 5.89320292041176" Properties=species:S:1:pos:R:3:initial_magmoms:R:1 energy=-16.6284158660177 pbc="T T T"
Pb       0.01496555       0.01496555       0.01496555       0.00000000 
Br       2.96300568       0.00020729       0.00020729       0.00000000 
Br       0.00020729       2.96300568       0.00020729       0.00000000 
Br       0.00020729       0.00020729       2.96300568       0.00000000 
Cs       2.98000950       2.98000950       2.98000950       0.00000000 
