   3   3   0   0
  0.1589994E+03  0.3319007E-09  0.3319007E-09  0.5000000E-08  0.5000000E-15
  1.000000000000000E-004
  CAR 
 unknown system                          
     11.73403645    -82.00853187  301     -3.49913090      1.00000000
    -82.009  0.0000E+00  0.0000E+00
    -81.696  0.0000E+00  0.0000E+00
    -81.384  0.0000E+00  0.0000E+00
    -81.071  0.0000E+00  0.0000E+00
    -80.759  0.0000E+00  0.0000E+00
    -80.446  0.0000E+00  0.0000E+00
    -80.134  0.0000E+00  0.0000E+00
    -79.821  0.0000E+00  0.0000E+00
    -79.509  0.0000E+00  0.0000E+00
    -79.196  0.0000E+00  0.0000E+00
    -78.884  0.0000E+00  0.0000E+00
    -78.571  0.0000E+00  0.0000E+00
    -78.259  0.0000E+00  0.0000E+00
    -77.946  0.0000E+00  0.0000E+00
    -77.634  0.0000E+00  0.2000E+01
    -77.321  0.0000E+00  0.2000E+01
    -77.009  0.0000E+00  0.2000E+01
    -76.696  0.0000E+00  0.2000E+01
    -76.384  0.0000E+00  0.2000E+01
    -76.072  0.0000E+00  0.2000E+01
    -75.759  0.0000E+00  0.2000E+01
    -75.447  0.0000E+00  0.2000E+01
    -75.134  0.0000E+00  0.2000E+01
    -74.822  0.0000E+00  0.2000E+01
    -74.509  0.0000E+00  0.2000E+01
    -74.197  0.0000E+00  0.2000E+01
    -73.884  0.0000E+00  0.2000E+01
    -73.572  0.0000E+00  0.2000E+01
    -73.259  0.0000E+00  0.2000E+01
    -72.947  0.0000E+00  0.2000E+01
    -72.634  0.0000E+00  0.2000E+01
    -72.322  0.0000E+00  0.2000E+01
    -72.009  0.0000E+00  0.2000E+01
    -71.697  0.0000E+00  0.2000E+01
    -71.384  0.0000E+00  0.2000E+01
    -71.072  0.0000E+00  0.2000E+01
    -70.759  0.0000E+00  0.2000E+01
    -70.447  0.0000E+00  0.2000E+01
    -70.134  0.0000E+00  0.2000E+01
    -69.822  0.0000E+00  0.2000E+01
    -69.510  0.0000E+00  0.2000E+01
    -69.197  0.0000E+00  0.2000E+01
    -68.885  0.0000E+00  0.2000E+01
    -68.572  0.0000E+00  0.2000E+01
    -68.260  0.0000E+00  0.2000E+01
    -67.947  0.0000E+00  0.2000E+01
    -67.635  0.0000E+00  0.2000E+01
    -67.322  0.0000E+00  0.2000E+01
    -67.010  0.0000E+00  0.2000E+01
    -66.697  0.0000E+00  0.2000E+01
    -66.385  0.0000E+00  0.2000E+01
    -66.072  0.0000E+00  0.2000E+01
    -65.760  0.0000E+00  0.2000E+01
    -65.447  0.0000E+00  0.2000E+01
    -65.135  0.0000E+00  0.2000E+01
    -64.822  0.0000E+00  0.2000E+01
    -64.510  0.0000E+00  0.2000E+01
    -64.197  0.0000E+00  0.2000E+01
    -63.885  0.0000E+00  0.2000E+01
    -63.572  0.0000E+00  0.2000E+01
    -63.260  0.0000E+00  0.2000E+01
    -62.948  0.0000E+00  0.2000E+01
    -62.635  0.0000E+00  0.2000E+01
    -62.323  0.0000E+00  0.2000E+01
    -62.010  0.0000E+00  0.2000E+01
    -61.698  0.0000E+00  0.2000E+01
    -61.385  0.0000E+00  0.2000E+01
    -61.073  0.0000E+00  0.2000E+01
    -60.760  0.0000E+00  0.2000E+01
    -60.448  0.0000E+00  0.2000E+01
    -60.135  0.0000E+00  0.2000E+01
    -59.823  0.0000E+00  0.2000E+01
    -59.510  0.0000E+00  0.2000E+01
    -59.198  0.0000E+00  0.2000E+01
    -58.885  0.0000E+00  0.2000E+01
    -58.573  0.0000E+00  0.2000E+01
    -58.260  0.0000E+00  0.2000E+01
    -57.948  0.0000E+00  0.2000E+01
    -57.635  0.0000E+00  0.2000E+01
    -57.323  0.0000E+00  0.2000E+01
    -57.011  0.0000E+00  0.2000E+01
    -56.698  0.0000E+00  0.2000E+01
    -56.386  0.0000E+00  0.2000E+01
    -56.073  0.0000E+00  0.2000E+01
    -55.761  0.0000E+00  0.2000E+01
    -55.448  0.0000E+00  0.2000E+01
    -55.136  0.0000E+00  0.2000E+01
    -54.823  0.0000E+00  0.2000E+01
    -54.511  0.0000E+00  0.2000E+01
    -54.198  0.0000E+00  0.2000E+01
    -53.886  0.0000E+00  0.2000E+01
    -53.573  0.0000E+00  0.2000E+01
    -53.261  0.0000E+00  0.2000E+01
    -52.948  0.0000E+00  0.2000E+01
    -52.636  0.0000E+00  0.2000E+01
    -52.323  0.0000E+00  0.2000E+01
    -52.011  0.0000E+00  0.2000E+01
    -51.698  0.0000E+00  0.2000E+01
    -51.386  0.0000E+00  0.2000E+01
    -51.073  0.0000E+00  0.2000E+01
    -50.761  0.0000E+00  0.2000E+01
    -50.449  0.0000E+00  0.2000E+01
    -50.136  0.0000E+00  0.2000E+01
    -49.824  0.0000E+00  0.2000E+01
    -49.511  0.0000E+00  0.2000E+01
    -49.199  0.0000E+00  0.2000E+01
    -48.886  0.0000E+00  0.2000E+01
    -48.574  0.0000E+00  0.2000E+01
    -48.261  0.0000E+00  0.2000E+01
    -47.949  0.0000E+00  0.2000E+01
    -47.636  0.0000E+00  0.2000E+01
    -47.324  0.0000E+00  0.2000E+01
    -47.011  0.0000E+00  0.2000E+01
    -46.699  0.0000E+00  0.2000E+01
    -46.386  0.0000E+00  0.2000E+01
    -46.074  0.0000E+00  0.2000E+01
    -45.761  0.0000E+00  0.2000E+01
    -45.449  0.0000E+00  0.2000E+01
    -45.136  0.0000E+00  0.2000E+01
    -44.824  0.0000E+00  0.2000E+01
    -44.512  0.0000E+00  0.2000E+01
    -44.199  0.0000E+00  0.2000E+01
    -43.887  0.0000E+00  0.2000E+01
    -43.574  0.0000E+00  0.2000E+01
    -43.262  0.0000E+00  0.2000E+01
    -42.949  0.0000E+00  0.2000E+01
    -42.637  0.0000E+00  0.2000E+01
    -42.324  0.0000E+00  0.2000E+01
    -42.012  0.1896E+02  0.3027E+01
    -41.699  0.0000E+00  0.8000E+01
    -41.387  0.0000E+00  0.8000E+01
    -41.074  0.0000E+00  0.8000E+01
    -40.762  0.0000E+00  0.8000E+01
    -40.449  0.0000E+00  0.8000E+01
    -40.137  0.0000E+00  0.8000E+01
    -39.824  0.0000E+00  0.8000E+01
    -39.512  0.0000E+00  0.8000E+01
    -39.199  0.0000E+00  0.8000E+01
    -38.887  0.0000E+00  0.8000E+01
    -38.574  0.0000E+00  0.8000E+01
    -38.262  0.0000E+00  0.8000E+01
    -37.950  0.0000E+00  0.8000E+01
    -37.637  0.0000E+00  0.8000E+01
    -37.325  0.0000E+00  0.8000E+01
    -37.012  0.0000E+00  0.8000E+01
    -36.700  0.0000E+00  0.8000E+01
    -36.387  0.0000E+00  0.8000E+01
    -36.075  0.0000E+00  0.8000E+01
    -35.762  0.0000E+00  0.8000E+01
    -35.450  0.0000E+00  0.8000E+01
    -35.137  0.0000E+00  0.8000E+01
    -34.825  0.0000E+00  0.8000E+01
    -34.512  0.0000E+00  0.8000E+01
    -34.200  0.0000E+00  0.8000E+01
    -33.887  0.0000E+00  0.8000E+01
    -33.575  0.0000E+00  0.8000E+01
    -33.262  0.0000E+00  0.8000E+01
    -32.950  0.0000E+00  0.8000E+01
    -32.637  0.0000E+00  0.8000E+01
    -32.325  0.0000E+00  0.8000E+01
    -32.012  0.0000E+00  0.8000E+01
    -31.700  0.0000E+00  0.8000E+01
    -31.388  0.0000E+00  0.8000E+01
    -31.075  0.0000E+00  0.8000E+01
    -30.763  0.0000E+00  0.8000E+01
    -30.450  0.0000E+00  0.8000E+01
    -30.138  0.0000E+00  0.8000E+01
    -29.825  0.0000E+00  0.8000E+01
    -29.513  0.0000E+00  0.8000E+01
    -29.200  0.0000E+00  0.8000E+01
    -28.888  0.0000E+00  0.8000E+01
    -28.575  0.0000E+00  0.8000E+01
    -28.263  0.0000E+00  0.8000E+01
    -27.950  0.0000E+00  0.8000E+01
    -27.638  0.0000E+00  0.8000E+01
    -27.325  0.0000E+00  0.8000E+01
    -27.013  0.0000E+00  0.8000E+01
    -26.700  0.0000E+00  0.8000E+01
    -26.388  0.0000E+00  0.8000E+01
    -26.075  0.0000E+00  0.8000E+01
    -25.763  0.0000E+00  0.8000E+01
    -25.451  0.0000E+00  0.8000E+01
    -25.138  0.0000E+00  0.8000E+01
    -24.826  0.0000E+00  0.8000E+01
    -24.513  0.0000E+00  0.8000E+01
    -24.201  0.0000E+00  0.8000E+01
    -23.888  0.0000E+00  0.8000E+01
    -23.576  0.0000E+00  0.8000E+01
    -23.263  0.0000E+00  0.8000E+01
    -22.951  0.0000E+00  0.8000E+01
    -22.638  0.0000E+00  0.8000E+01
    -22.326  0.0000E+00  0.8000E+01
    -22.013  0.0000E+00  0.8000E+01
    -21.701  0.0000E+00  0.8000E+01
    -21.388  0.0000E+00  0.8000E+01
    -21.076  0.0000E+00  0.8000E+01
    -20.763  0.0000E+00  0.8000E+01
    -20.451  0.0000E+00  0.8000E+01
    -20.138  0.0000E+00  0.8000E+01
    -19.826  0.0000E+00  0.8000E+01
    -19.513  0.0000E+00  0.8000E+01
    -19.201  0.0000E+00  0.8000E+01
    -18.889  0.0000E+00  0.8000E+01
    -18.576  0.0000E+00  0.8000E+01
    -18.264  0.4699E+00  0.8033E+01
    -17.951  0.5333E+00  0.8197E+01
    -17.639  0.6002E+00  0.8375E+01
    -17.326  0.6790E+00  0.8574E+01
    -17.014  0.1786E+01  0.8897E+01
    -16.701  0.2357E+01  0.9545E+01
    -16.389  0.3983E+01  0.1057E+02
    -16.076  0.2676E+01  0.1188E+02
    -15.764  0.0000E+00  0.1200E+02
    -15.451  0.0000E+00  0.1200E+02
    -15.139  0.0000E+00  0.1200E+02
    -14.826  0.0000E+00  0.1200E+02
    -14.514  0.0000E+00  0.1200E+02
    -14.201  0.0000E+00  0.1200E+02
    -13.889  0.0000E+00  0.1200E+02
    -13.576  0.0000E+00  0.1200E+02
    -13.264  0.0000E+00  0.1200E+02
    -12.952  0.0000E+00  0.1200E+02
    -12.639  0.0000E+00  0.1200E+02
    -12.327  0.0000E+00  0.1200E+02
    -12.014  0.0000E+00  0.1200E+02
    -11.702  0.0000E+00  0.1200E+02
    -11.389  0.0000E+00  0.1200E+02
    -11.077  0.0000E+00  0.1200E+02
    -10.764  0.0000E+00  0.1200E+02
    -10.452  0.0000E+00  0.1200E+02
    -10.139  0.0000E+00  0.1200E+02
     -9.827  0.9472E+00  0.1205E+02
     -9.514  0.1368E+01  0.1243E+02
     -9.202  0.1912E+01  0.1292E+02
     -8.889  0.3895E+01  0.1358E+02
     -8.577  0.1822E+01  0.1456E+02
     -8.264  0.8994E+00  0.1490E+02
     -7.952  0.6193E+00  0.1550E+02
     -7.639  0.4013E+01  0.1689E+02
     -7.327  0.1607E+01  0.1720E+02
     -7.014  0.2458E+01  0.1763E+02
     -6.702  0.2792E+01  0.1875E+02
     -6.390  0.1852E+01  0.1955E+02
     -6.077  0.1526E+01  0.2006E+02
     -5.765  0.5475E+01  0.2080E+02
     -5.452  0.3672E+01  0.2223E+02
     -5.140  0.3828E+01  0.2308E+02
     -4.827  0.3806E+01  0.2385E+02
     -4.515  0.2350E+01  0.2435E+02
     -4.202  0.2464E+01  0.2531E+02
     -3.890  0.6662E+00  0.2589E+02
     -3.577  0.0000E+00  0.2600E+02
     -3.265  0.0000E+00  0.2600E+02
     -2.952  0.0000E+00  0.2600E+02
     -2.640  0.0000E+00  0.2600E+02
     -2.327  0.0000E+00  0.2600E+02
     -2.015  0.2741E+00  0.2601E+02
     -1.702  0.4112E+01  0.2675E+02
     -1.390  0.2946E+01  0.2765E+02
     -1.077  0.5026E+01  0.2926E+02
     -0.765  0.4178E+01  0.3053E+02
     -0.452  0.2015E+01  0.3143E+02
     -0.140  0.1358E+01  0.3195E+02
      0.172  0.6768E+00  0.3238E+02
      0.485  0.3326E+01  0.3277E+02
      0.797  0.1583E+01  0.3378E+02
      1.110  0.1918E+01  0.3421E+02
      1.422  0.1747E+01  0.3463E+02
      1.735  0.2744E+01  0.3536E+02
      2.047  0.3906E+01  0.3644E+02
      2.360  0.3966E+01  0.3769E+02
      2.672  0.4666E+01  0.3892E+02
      2.985  0.5076E+01  0.4036E+02
      3.297  0.5690E+01  0.4208E+02
      3.610  0.5765E+01  0.4395E+02
      3.922  0.4921E+01  0.4561E+02
      4.235  0.4678E+01  0.4709E+02
      4.547  0.4959E+01  0.4865E+02
      4.860  0.4436E+01  0.5027E+02
      5.172  0.3919E+01  0.5158E+02
      5.485  0.3883E+01  0.5283E+02
      5.797  0.3260E+01  0.5400E+02
      6.109  0.1949E+01  0.5492E+02
      6.422  0.1198E+01  0.5540E+02
      6.734  0.1088E+01  0.5580E+02
      7.047  0.2724E+00  0.5594E+02
      7.359  0.6788E-01  0.5600E+02
      7.672  0.0000E+00  0.5600E+02
      7.984  0.0000E+00  0.5600E+02
      8.297  0.0000E+00  0.5600E+02
      8.609  0.0000E+00  0.5600E+02
      8.922  0.0000E+00  0.5600E+02
      9.234  0.0000E+00  0.5600E+02
      9.547  0.0000E+00  0.5600E+02
      9.859  0.0000E+00  0.5600E+02
     10.172  0.0000E+00  0.5600E+02
     10.484  0.0000E+00  0.5600E+02
     10.797  0.0000E+00  0.5600E+02
     11.109  0.0000E+00  0.5600E+02
     11.422  0.0000E+00  0.5600E+02
     11.734  0.0000E+00  0.5600E+02
