       N       E                     dE             d eps       ncg     rms          rms(c)
DAV:   1     0.107642670943E+03    0.10764E+03   -0.10465E+04  3528   0.436E+02
DAV:   2    -0.237537709816E+02   -0.13140E+03   -0.12982E+03  3108   0.126E+02
DAV:   3    -0.259630629992E+02   -0.22093E+01   -0.22093E+01  2940   0.211E+01
DAV:   4    -0.259756374148E+02   -0.12574E-01   -0.12574E-01  2856   0.121E+00
DAV:   5    -0.259758023488E+02   -0.16493E-03   -0.16493E-03  2940   0.941E-02    0.767E+01
DAV:   6    -0.240695099873E+02    0.19063E+01   -0.23981E+01  2128   0.114E+01    0.691E+01
DAV:   7    -0.276875113818E+02   -0.36180E+01   -0.55956E+01  3024   0.161E+01    0.585E+01
DAV:   8    -0.236534220748E+02    0.40341E+01   -0.30413E+01  2688   0.116E+01    0.902E-01
DAV:   9    -0.236782306732E+02   -0.24809E-01   -0.25378E-01  2716   0.209E+00    0.327E+00
DAV:  10    -0.236778608763E+02    0.36980E-03   -0.12994E-02  3136   0.360E-01    0.181E+00
DAV:  11    -0.236764294600E+02    0.14314E-02   -0.52341E-03  3696   0.228E-01    0.624E-01
DAV:  12    -0.236763271384E+02    0.10232E-03   -0.47522E-04  3332   0.522E-02    0.858E-02
DAV:  13    -0.236762453456E+02    0.81793E-04   -0.93924E-05  3276   0.246E-02    0.804E-02
DAV:  14    -0.236762996922E+02   -0.54347E-04   -0.96155E-05  2828   0.193E-02    0.941E-03
DAV:  15    -0.236764152994E+02   -0.11561E-03   -0.39254E-05  2688   0.147E-02    0.574E-02
DAV:  16    -0.236765146233E+02   -0.99324E-04   -0.58900E-06  2548   0.681E-03    0.143E-02
DAV:  17    -0.236765767058E+02   -0.62083E-04   -0.25442E-06  2520   0.360E-03    0.939E-03
DAV:  18    -0.236766132911E+02   -0.36585E-04   -0.98068E-07  2604   0.184E-03    0.201E-03
DAV:  19    -0.236766443968E+02   -0.31106E-04   -0.74353E-07  2548   0.164E-03    0.541E-03
DAV:  20    -0.236766501091E+02   -0.57123E-05   -0.90059E-08  2800   0.699E-04    0.757E-04
DAV:  21    -0.236766554566E+02   -0.53475E-05   -0.82506E-08  2436   0.569E-04    0.181E-03
DAV:  22    -0.236766581717E+02   -0.27151E-05   -0.49191E-08  2576   0.448E-04    0.325E-04
DAV:  23    -0.236766592248E+02   -0.10531E-05   -0.93633E-09  2688   0.222E-04    0.906E-04
DAV:  24    -0.236766597931E+02   -0.56840E-06   -0.24818E-09  2436   0.162E-04    0.565E-05
DAV:  25    -0.236766600375E+02   -0.24439E-06   -0.31279E-10  2380   0.931E-05    0.151E-04
DAV:  26    -0.236766602451E+02   -0.20753E-06   -0.22333E-10  2464   0.952E-05    0.103E-04
DAV:  27    -0.236766602924E+02   -0.47370E-07   -0.40374E-11  2660   0.384E-05    0.400E-05
DAV:  28    -0.236766603066E+02   -0.14137E-07    0.51154E-12  2324   0.206E-05    0.877E-06
DAV:  29    -0.236766603098E+02   -0.32196E-08   -0.45507E-12  2716   0.816E-06
   1 F= -.24268564E+02 E0= -.24268564E+02  d E =0.000000E+00
 Linear response reoptimize wavefunctions
DAV:   1    -0.236766603111E+02    0.59190E+00    0.29693E-11  2520   0.923E-06
DAV:   2    -0.236766603111E+02    0.00000E+00    0.27137E-11  2688   0.481E-07
 Linear response G [H, r] |phi>, progress :
  Direction:   1
       N       E                     dE             d eps       ncg     rms
RMM:   1    -0.118641895311E+03   -0.11864E+03    0.49103E+02  5125   0.881E+01
RMM:   2    -0.116469916523E+03    0.21720E+01   -0.32984E+01  4608   0.183E+01
RMM:   3    -0.116918175638E+03   -0.44826E+00   -0.11868E+00  4830   0.328E+00
RMM:   4    -0.116936206938E+03   -0.18031E-01   -0.54734E-02  4988   0.581E-01
RMM:   5    -0.116936373990E+03   -0.16705E-03   -0.32342E-03  4866   0.138E-01
RMM:   6    -0.116936381207E+03   -0.72168E-05   -0.26327E-04  4949   0.311E-02
RMM:   7    -0.116936374950E+03    0.62567E-05   -0.29527E-05  4608   0.867E-03
RMM:   8    -0.116936374320E+03    0.63001E-06   -0.70290E-06  4549   0.214E-03
RMM:   9    -0.116936373971E+03    0.34869E-06   -0.22754E-06  4339   0.645E-04
RMM:  10    -0.116936373835E+03    0.13597E-06   -0.68483E-07  4210   0.201E-04
RMM:  11    -0.116936373806E+03    0.29021E-07   -0.35212E-07  3970   0.960E-05
RMM:  12    -0.116936373795E+03    0.11028E-07   -0.22888E-07  3665   0.679E-05
RMM:  13    -0.116936373795E+03    0.11548E-09   -0.22435E-07  3350   0.633E-05
RMM:  14    -0.116936373792E+03    0.33406E-08   -0.19009E-07  3114   0.630E-05
 Linear response G [H, r] |phi>, progress :
  Direction:   2
       N       E                     dE             d eps       ncg     rms
RMM:   1    -0.121095461215E+03   -0.12110E+03    0.43654E+02  5142   0.878E+01
RMM:   2    -0.122906566864E+03   -0.18111E+01   -0.34072E+01  4557   0.180E+01
RMM:   3    -0.123228706413E+03   -0.32214E+00   -0.13004E+00  4790   0.317E+00
RMM:   4    -0.123237550674E+03   -0.88443E-02   -0.60749E-02  4940   0.570E-01
RMM:   5    -0.123237772619E+03   -0.22194E-03   -0.69317E-03  4861   0.135E-01
RMM:   6    -0.123237445544E+03    0.32707E-03   -0.43220E-04  4925   0.319E-02
RMM:   7    -0.123237438730E+03    0.68142E-05   -0.18193E-04  4574   0.864E-03
RMM:   8    -0.123237424856E+03    0.13874E-04   -0.28505E-05  4543   0.227E-03
RMM:   9    -0.123237423854E+03    0.10022E-05   -0.17737E-05  4293   0.705E-04
RMM:  10    -0.123237422434E+03    0.14193E-05   -0.35253E-06  4207   0.266E-04
RMM:  11    -0.123237422314E+03    0.12069E-06   -0.23406E-06  3930   0.156E-04
RMM:  12    -0.123237422197E+03    0.11638E-06   -0.11843E-06  3623   0.127E-04
RMM:  13    -0.123237422178E+03    0.19330E-07   -0.99352E-07  3255   0.123E-04
RMM:  14    -0.123237422192E+03   -0.13868E-07   -0.11322E-06  3100   0.122E-04
 Linear response G [H, r] |phi>, progress :
  Direction:   3
       N       E                     dE             d eps       ncg     rms
RMM:   1    -0.118452758001E+03   -0.11845E+03    0.56396E+02  4981   0.902E+01
RMM:   2    -0.120004891883E+03   -0.15521E+01   -0.32985E+01  4466   0.177E+01
RMM:   3    -0.120448090681E+03   -0.44320E+00   -0.15048E+00  4718   0.325E+00
RMM:   4    -0.120469854154E+03   -0.21763E-01   -0.65970E-02  4861   0.570E-01
RMM:   5    -0.120470097995E+03   -0.24384E-03   -0.45953E-03  4775   0.136E-01
RMM:   6    -0.120470166560E+03   -0.68565E-04   -0.18062E-04  4823   0.292E-02
RMM:   7    -0.120470168979E+03   -0.24190E-05   -0.87579E-06  4485   0.755E-03
RMM:   8    -0.120470169816E+03   -0.83690E-06    0.35197E-07  4418   0.167E-03
RMM:   9    -0.120470169870E+03   -0.53710E-07    0.46264E-07  4187   0.484E-04
RMM:  10    -0.120470169910E+03   -0.40175E-07    0.23456E-08  4044   0.186E-04
RMM:  11    -0.120470169911E+03   -0.11600E-08    0.11390E-08  3685   0.125E-04
 Linear response to external field (no local field effect), progress :
  Direction:   1
       N       E                     dE             d eps       ncg     rms          rms(c)
RMM:   1    -0.210297621061E+01   -0.21030E+01   -0.13310E+01  5420   0.381E+00
RMM:   2    -0.257328946683E+01   -0.47031E+00   -0.93566E-02  4424   0.739E-01
RMM:   3    -0.257656820048E+01   -0.32787E-02   -0.10634E-02  4605   0.148E-01
RMM:   4    -0.257669675163E+01   -0.12855E-03   -0.37650E-04  4615   0.284E-02
RMM:   5    -0.257670089471E+01   -0.41431E-05   -0.14918E-05  4531   0.609E-03
RMM:   6    -0.257670116690E+01   -0.27219E-06   -0.95928E-07  4327   0.137E-03
RMM:   7    -0.257670117015E+01   -0.32571E-08   -0.17875E-08  4195   0.318E-04
 Linear response to external field (no local field effect), progress :
  Direction:   2
       N       E                     dE             d eps       ncg     rms          rms(c)
RMM:   1    -0.213828521890E+01   -0.21383E+01   -0.13218E+01  5327   0.388E+00
RMM:   2    -0.247766279054E+01   -0.33938E+00   -0.94273E-02  4445   0.771E-01
RMM:   3    -0.248075493895E+01   -0.30921E-02   -0.80235E-03  4609   0.148E-01
RMM:   4    -0.248085089945E+01   -0.95960E-04   -0.39578E-04  4621   0.286E-02
RMM:   5    -0.248085554810E+01   -0.46486E-05   -0.15494E-05  4541   0.628E-03
RMM:   6    -0.248085566764E+01   -0.11954E-06   -0.48820E-07  4326   0.123E-03
RMM:   7    -0.248085567544E+01   -0.77956E-08   -0.14134E-08  4152   0.317E-04
 Linear response to external field (no local field effect), progress :
  Direction:   3
       N       E                     dE             d eps       ncg     rms          rms(c)
RMM:   1    -0.124152963749E+01   -0.12415E+01   -0.57513E+00  5209   0.343E+00
RMM:   2    -0.133609636242E+01   -0.94567E-01   -0.38124E-02  4235   0.592E-01
RMM:   3    -0.133702537043E+01   -0.92901E-03   -0.22975E-03  4480   0.110E-01
RMM:   4    -0.133706073651E+01   -0.35366E-04   -0.88479E-05  4453   0.205E-02
RMM:   5    -0.133706287213E+01   -0.21356E-05   -0.53133E-06  4340   0.477E-03
RMM:   6    -0.133706301030E+01   -0.13817E-06   -0.28446E-07  4189   0.109E-03
RMM:   7    -0.133706302252E+01   -0.12216E-07   -0.13225E-08  3897   0.279E-04
RMM:   8    -0.133706302410E+01   -0.15774E-08   -0.48037E-09  3554   0.789E-05
 Linear response to external field, progress :
  Direction:   1
       N       E                     dE             d eps       ncg     rms          rms(c)
RMM:   1    -0.212237807079E+01   -0.21224E+01   -0.13282E+01 23770   0.381E+00
RMM:   2    -0.252555601634E+01   -0.40318E+00   -0.93656E-02 19637   0.744E-01    0.275E+00
RMM:   3    -0.245989330991E+01    0.65663E-01   -0.66848E-02 18227   0.106E+00    0.156E+00
RMM:   4    -0.251219846560E+01   -0.52305E-01   -0.55798E-02 17542   0.106E+00    0.393E-01
RMM:   5    -0.253097927365E+01   -0.18781E-01   -0.11505E-03 18411   0.188E-01    0.409E-02
RMM:   6    -0.253280176042E+01   -0.18225E-02   -0.66668E-05 20156   0.317E-02    0.238E-02
RMM:   7    -0.253381939028E+01   -0.10176E-02   -0.37519E-05 19201   0.171E-02    0.659E-03
RMM:   8    -0.253425266483E+01   -0.43327E-03    0.17318E-06 19589   0.478E-03    0.286E-03
RMM:   9    -0.253441937460E+01   -0.16671E-03    0.73334E-06 19378   0.248E-03    0.105E-03
RMM:  10    -0.253444917966E+01   -0.29805E-04    0.99472E-08 18806   0.917E-04    0.389E-04
RMM:  11    -0.253446717285E+01   -0.17993E-04   -0.19046E-07 18887   0.359E-04    0.100E-04
RMM:  12    -0.253446849229E+01   -0.13194E-05   -0.17323E-08 18356   0.674E-05    0.343E-05
RMM:  13    -0.253446847181E+01    0.20490E-07   -0.30192E-08 14565   0.331E-05    0.987E-06
 Linear response to external field, progress :
  Direction:   2
       N       E                     dE             d eps       ncg     rms          rms(c)
RMM:   1    -0.212345515117E+01   -0.21235E+01   -0.13292E+01 13179   0.381E+00
RMM:   2    -0.252554068085E+01   -0.40209E+00   -0.94520E-02 10909   0.752E-01    0.275E+00
RMM:   3    -0.245995699817E+01    0.65584E-01   -0.65588E-02 10192   0.107E+00    0.156E+00
RMM:   4    -0.251222478043E+01   -0.52268E-01   -0.55516E-02  9805   0.106E+00    0.392E-01
RMM:   5    -0.253096813935E+01   -0.18743E-01   -0.22365E-03 10260   0.187E-01    0.421E-02
RMM:   6    -0.253277582648E+01   -0.18077E-02   -0.15235E-04 11222   0.323E-02    0.272E-02
RMM:   7    -0.253352616525E+01   -0.75034E-03    0.28318E-05 10907   0.132E-02    0.956E-03
RMM:   8    -0.253420572588E+01   -0.67956E-03   -0.21351E-05 10580   0.699E-03    0.327E-03
RMM:   9    -0.253440599664E+01   -0.20027E-03   -0.30996E-06 10714   0.303E-03    0.106E-03
RMM:  10    -0.253443749471E+01   -0.31498E-04   -0.20230E-06 10688   0.927E-04    0.593E-04
RMM:  11    -0.253445585128E+01   -0.18357E-04    0.92409E-07 10409   0.419E-04    0.906E-05
RMM:  12    -0.253445724722E+01   -0.13959E-05    0.14016E-07 10380   0.769E-05    0.361E-05
RMM:  13    -0.253445732532E+01   -0.78092E-07   -0.18138E-09  8074   0.292E-05    0.182E-05
RMM:  14    -0.253445701308E+01    0.31224E-06    0.10379E-09  7109   0.259E-05    0.321E-06
 Linear response to external field, progress :
  Direction:   3
       N       E                     dE             d eps       ncg     rms          rms(c)
RMM:   1    -0.124152963749E+01   -0.12415E+01   -0.57513E+00  5209   0.343E+00
RMM:   2    -0.133609636242E+01   -0.94567E-01   -0.38124E-02  4235   0.592E-01    0.263E+00
RMM:   3    -0.291689470582E+00    0.10444E+01   -0.15087E+00  3856   0.254E+00    0.137E+00
RMM:   4    -0.191353184775E+00    0.10034E+00   -0.35825E-02  3968   0.735E-01    0.457E-01
RMM:   5    -0.173101758228E+00    0.18251E-01   -0.30181E-02  3770   0.483E-01    0.133E-01
RMM:   6    -0.170400250135E+00    0.27015E-02    0.79950E-04  3898   0.116E-01    0.951E-02
RMM:   7    -0.169160318018E+00    0.12399E-02   -0.12636E-03  3573   0.890E-02    0.278E-02
RMM:   8    -0.168915743379E+00    0.24457E-03   -0.78362E-04  3509   0.483E-02    0.152E-02
RMM:   9    -0.168966927833E+00   -0.51184E-04   -0.26489E-04  3430   0.301E-02    0.924E-03
RMM:  10    -0.169273492184E+00   -0.30656E-03   -0.43730E-04  3455   0.240E-02    0.378E-03
RMM:  11    -0.169441203661E+00   -0.16771E-03   -0.33387E-04  3687   0.137E-02    0.221E-03
RMM:  12    -0.169510554955E+00   -0.69351E-04   -0.25508E-04  3676   0.969E-03    0.132E-03
RMM:  13    -0.169513906861E+00   -0.33519E-05   -0.11846E-04  3940   0.482E-03    0.679E-04
RMM:  14    -0.169495948278E+00    0.17959E-04   -0.64960E-05  3681   0.401E-03    0.299E-04
RMM:  15    -0.169485610425E+00    0.10338E-04   -0.29004E-05  3937   0.154E-03    0.222E-04
RMM:  16    -0.169480503542E+00    0.51069E-05   -0.11588E-05  3938   0.783E-04    0.138E-04
RMM:  17    -0.169477813406E+00    0.26901E-05   -0.38673E-06  3679   0.859E-04    0.664E-05
RMM:  18    -0.169478397451E+00   -0.58404E-06   -0.14874E-06  3568   0.384E-04    0.325E-05
RMM:  19    -0.169478519509E+00   -0.12206E-06   -0.83661E-07  3791   0.111E-04    0.166E-05
RMM:  20    -0.169478640085E+00   -0.12058E-06   -0.14736E-06  3424   0.122E-04    0.744E-06
