unknown system                          
           1
     3.319007    0.000000    0.000000
    -1.659503    2.874344    0.000000
     0.000000    0.000000   50.000000
   W    Se
   1   2
Direct configuration=     1
   0.16666667  0.33333333  0.50000000
   0.83333333  0.66666667  0.53358553
   0.83333333  0.66666667  0.46641447
