   9   9   0   0
  0.5299982E+02  0.3319007E-09  0.3319007E-09  0.5000000E-08  0.5000000E-15
  1.000000000000000E-004
  CAR 
 unknown system                          
     11.00969055    -78.93612493  301     -0.30849123      1.00000000
    -78.936  0.0000E+00  0.0000E+00
    -78.636  0.0000E+00  0.0000E+00
    -78.336  0.0000E+00  0.0000E+00
    -78.037  0.0000E+00  0.0000E+00
    -77.737  0.0000E+00  0.0000E+00
    -77.437  0.0000E+00  0.0000E+00
    -77.137  0.0000E+00  0.0000E+00
    -76.837  0.0000E+00  0.0000E+00
    -76.538  0.0000E+00  0.0000E+00
    -76.238  0.0000E+00  0.0000E+00
    -75.938  0.0000E+00  0.0000E+00
    -75.638  0.0000E+00  0.0000E+00
    -75.338  0.0000E+00  0.0000E+00
    -75.038  0.0000E+00  0.0000E+00
    -74.739  0.0000E+00  0.6000E+01
    -74.439  0.0000E+00  0.6000E+01
    -74.139  0.0000E+00  0.6000E+01
    -73.839  0.0000E+00  0.6000E+01
    -73.539  0.0000E+00  0.6000E+01
    -73.240  0.0000E+00  0.6000E+01
    -72.940  0.0000E+00  0.6000E+01
    -72.640  0.0000E+00  0.6000E+01
    -72.340  0.0000E+00  0.6000E+01
    -72.040  0.0000E+00  0.6000E+01
    -71.740  0.0000E+00  0.6000E+01
    -71.441  0.0000E+00  0.6000E+01
    -71.141  0.0000E+00  0.6000E+01
    -70.841  0.0000E+00  0.6000E+01
    -70.541  0.0000E+00  0.6000E+01
    -70.241  0.0000E+00  0.6000E+01
    -69.942  0.0000E+00  0.6000E+01
    -69.642  0.0000E+00  0.6000E+01
    -69.342  0.0000E+00  0.6000E+01
    -69.042  0.0000E+00  0.6000E+01
    -68.742  0.0000E+00  0.6000E+01
    -68.442  0.0000E+00  0.6000E+01
    -68.143  0.0000E+00  0.6000E+01
    -67.843  0.0000E+00  0.6000E+01
    -67.543  0.0000E+00  0.6000E+01
    -67.243  0.0000E+00  0.6000E+01
    -66.943  0.0000E+00  0.6000E+01
    -66.644  0.0000E+00  0.6000E+01
    -66.344  0.0000E+00  0.6000E+01
    -66.044  0.0000E+00  0.6000E+01
    -65.744  0.0000E+00  0.6000E+01
    -65.444  0.0000E+00  0.6000E+01
    -65.144  0.0000E+00  0.6000E+01
    -64.845  0.0000E+00  0.6000E+01
    -64.545  0.0000E+00  0.6000E+01
    -64.245  0.0000E+00  0.6000E+01
    -63.945  0.0000E+00  0.6000E+01
    -63.645  0.0000E+00  0.6000E+01
    -63.346  0.0000E+00  0.6000E+01
    -63.046  0.0000E+00  0.6000E+01
    -62.746  0.0000E+00  0.6000E+01
    -62.446  0.0000E+00  0.6000E+01
    -62.146  0.0000E+00  0.6000E+01
    -61.846  0.0000E+00  0.6000E+01
    -61.547  0.0000E+00  0.6000E+01
    -61.247  0.0000E+00  0.6000E+01
    -60.947  0.0000E+00  0.6000E+01
    -60.647  0.0000E+00  0.6000E+01
    -60.347  0.0000E+00  0.6000E+01
    -60.048  0.0000E+00  0.6000E+01
    -59.748  0.0000E+00  0.6000E+01
    -59.448  0.0000E+00  0.6000E+01
    -59.148  0.0000E+00  0.6000E+01
    -58.848  0.0000E+00  0.6000E+01
    -58.548  0.0000E+00  0.6000E+01
    -58.249  0.0000E+00  0.6000E+01
    -57.949  0.0000E+00  0.6000E+01
    -57.649  0.0000E+00  0.6000E+01
    -57.349  0.0000E+00  0.6000E+01
    -57.049  0.0000E+00  0.6000E+01
    -56.749  0.0000E+00  0.6000E+01
    -56.450  0.0000E+00  0.6000E+01
    -56.150  0.0000E+00  0.6000E+01
    -55.850  0.0000E+00  0.6000E+01
    -55.550  0.0000E+00  0.6000E+01
    -55.250  0.0000E+00  0.6000E+01
    -54.951  0.0000E+00  0.6000E+01
    -54.651  0.0000E+00  0.6000E+01
    -54.351  0.0000E+00  0.6000E+01
    -54.051  0.0000E+00  0.6000E+01
    -53.751  0.0000E+00  0.6000E+01
    -53.451  0.0000E+00  0.6000E+01
    -53.152  0.0000E+00  0.6000E+01
    -52.852  0.0000E+00  0.6000E+01
    -52.552  0.0000E+00  0.6000E+01
    -52.252  0.0000E+00  0.6000E+01
    -51.952  0.0000E+00  0.6000E+01
    -51.653  0.0000E+00  0.6000E+01
    -51.353  0.0000E+00  0.6000E+01
    -51.053  0.0000E+00  0.6000E+01
    -50.753  0.0000E+00  0.6000E+01
    -50.453  0.0000E+00  0.6000E+01
    -50.153  0.0000E+00  0.6000E+01
    -49.854  0.0000E+00  0.6000E+01
    -49.554  0.0000E+00  0.6000E+01
    -49.254  0.0000E+00  0.6000E+01
    -48.954  0.0000E+00  0.6000E+01
    -48.654  0.0000E+00  0.6000E+01
    -48.355  0.0000E+00  0.6000E+01
    -48.055  0.0000E+00  0.6000E+01
    -47.755  0.0000E+00  0.6000E+01
    -47.455  0.0000E+00  0.6000E+01
    -47.155  0.0000E+00  0.6000E+01
    -46.855  0.0000E+00  0.6000E+01
    -46.556  0.0000E+00  0.6000E+01
    -46.256  0.0000E+00  0.6000E+01
    -45.956  0.0000E+00  0.6000E+01
    -45.656  0.0000E+00  0.6000E+01
    -45.356  0.0000E+00  0.6000E+01
    -45.057  0.0000E+00  0.6000E+01
    -44.757  0.0000E+00  0.6000E+01
    -44.457  0.0000E+00  0.6000E+01
    -44.157  0.0000E+00  0.6000E+01
    -43.857  0.0000E+00  0.6000E+01
    -43.557  0.0000E+00  0.6000E+01
    -43.258  0.0000E+00  0.6000E+01
    -42.958  0.0000E+00  0.6000E+01
    -42.658  0.0000E+00  0.6000E+01
    -42.358  0.0000E+00  0.6000E+01
    -42.058  0.0000E+00  0.6000E+01
    -41.759  0.0000E+00  0.6000E+01
    -41.459  0.0000E+00  0.6000E+01
    -41.159  0.0000E+00  0.6000E+01
    -40.859  0.0000E+00  0.6000E+01
    -40.559  0.0000E+00  0.6000E+01
    -40.259  0.0000E+00  0.6000E+01
    -39.960  0.0000E+00  0.6000E+01
    -39.660  0.0000E+00  0.6000E+01
    -39.360  0.0000E+00  0.6000E+01
    -39.060  0.3680E+02  0.1073E+02
    -38.760  0.0000E+00  0.2400E+02
    -38.461  0.0000E+00  0.2400E+02
    -38.161  0.0000E+00  0.2400E+02
    -37.861  0.0000E+00  0.2400E+02
    -37.561  0.0000E+00  0.2400E+02
    -37.261  0.0000E+00  0.2400E+02
    -36.961  0.0000E+00  0.2400E+02
    -36.662  0.0000E+00  0.2400E+02
    -36.362  0.0000E+00  0.2400E+02
    -36.062  0.0000E+00  0.2400E+02
    -35.762  0.0000E+00  0.2400E+02
    -35.462  0.0000E+00  0.2400E+02
    -35.162  0.0000E+00  0.2400E+02
    -34.863  0.0000E+00  0.2400E+02
    -34.563  0.0000E+00  0.2400E+02
    -34.263  0.0000E+00  0.2400E+02
    -33.963  0.0000E+00  0.2400E+02
    -33.663  0.0000E+00  0.2400E+02
    -33.364  0.0000E+00  0.2400E+02
    -33.064  0.0000E+00  0.2400E+02
    -32.764  0.0000E+00  0.2400E+02
    -32.464  0.0000E+00  0.2400E+02
    -32.164  0.0000E+00  0.2400E+02
    -31.864  0.0000E+00  0.2400E+02
    -31.565  0.0000E+00  0.2400E+02
    -31.265  0.0000E+00  0.2400E+02
    -30.965  0.0000E+00  0.2400E+02
    -30.665  0.0000E+00  0.2400E+02
    -30.365  0.0000E+00  0.2400E+02
    -30.066  0.0000E+00  0.2400E+02
    -29.766  0.0000E+00  0.2400E+02
    -29.466  0.0000E+00  0.2400E+02
    -29.166  0.0000E+00  0.2400E+02
    -28.866  0.0000E+00  0.2400E+02
    -28.566  0.0000E+00  0.2400E+02
    -28.267  0.0000E+00  0.2400E+02
    -27.967  0.0000E+00  0.2400E+02
    -27.667  0.0000E+00  0.2400E+02
    -27.367  0.0000E+00  0.2400E+02
    -27.067  0.0000E+00  0.2400E+02
    -26.768  0.0000E+00  0.2400E+02
    -26.468  0.0000E+00  0.2400E+02
    -26.168  0.0000E+00  0.2400E+02
    -25.868  0.0000E+00  0.2400E+02
    -25.568  0.0000E+00  0.2400E+02
    -25.268  0.0000E+00  0.2400E+02
    -24.969  0.0000E+00  0.2400E+02
    -24.669  0.0000E+00  0.2400E+02
    -24.369  0.0000E+00  0.2400E+02
    -24.069  0.0000E+00  0.2400E+02
    -23.769  0.0000E+00  0.2400E+02
    -23.470  0.0000E+00  0.2400E+02
    -23.170  0.0000E+00  0.2400E+02
    -22.870  0.0000E+00  0.2400E+02
    -22.570  0.0000E+00  0.2400E+02
    -22.270  0.0000E+00  0.2400E+02
    -21.970  0.0000E+00  0.2400E+02
    -21.671  0.0000E+00  0.2400E+02
    -21.371  0.0000E+00  0.2400E+02
    -21.071  0.0000E+00  0.2400E+02
    -20.771  0.0000E+00  0.2400E+02
    -20.471  0.0000E+00  0.2400E+02
    -20.172  0.0000E+00  0.2400E+02
    -19.872  0.0000E+00  0.2400E+02
    -19.572  0.0000E+00  0.2400E+02
    -19.272  0.0000E+00  0.2400E+02
    -18.972  0.0000E+00  0.2400E+02
    -18.672  0.0000E+00  0.2400E+02
    -18.373  0.0000E+00  0.2400E+02
    -18.073  0.0000E+00  0.2400E+02
    -17.773  0.0000E+00  0.2400E+02
    -17.473  0.0000E+00  0.2400E+02
    -17.173  0.0000E+00  0.2400E+02
    -16.874  0.0000E+00  0.2400E+02
    -16.574  0.0000E+00  0.2400E+02
    -16.274  0.0000E+00  0.2400E+02
    -15.974  0.0000E+00  0.2400E+02
    -15.674  0.0000E+00  0.2400E+02
    -15.374  0.1089E+01  0.2413E+02
    -15.075  0.1635E+01  0.2460E+02
    -14.775  0.1793E+01  0.2512E+02
    -14.475  0.2021E+01  0.2569E+02
    -14.175  0.4326E+01  0.2657E+02
    -13.875  0.6744E+01  0.2827E+02
    -13.575  0.1139E+02  0.3085E+02
    -13.276  0.1510E+02  0.3475E+02
    -12.976  0.0000E+00  0.3600E+02
    -12.676  0.0000E+00  0.3600E+02
    -12.376  0.0000E+00  0.3600E+02
    -12.076  0.0000E+00  0.3600E+02
    -11.777  0.0000E+00  0.3600E+02
    -11.477  0.0000E+00  0.3600E+02
    -11.177  0.0000E+00  0.3600E+02
    -10.877  0.0000E+00  0.3600E+02
    -10.577  0.0000E+00  0.3600E+02
    -10.277  0.0000E+00  0.3600E+02
     -9.978  0.0000E+00  0.3600E+02
     -9.678  0.0000E+00  0.3600E+02
     -9.378  0.0000E+00  0.3600E+02
     -9.078  0.0000E+00  0.3600E+02
     -8.778  0.0000E+00  0.3600E+02
     -8.479  0.0000E+00  0.3600E+02
     -8.179  0.0000E+00  0.3600E+02
     -7.879  0.0000E+00  0.3600E+02
     -7.579  0.0000E+00  0.3600E+02
     -7.279  0.4436E+00  0.3601E+02
     -6.979  0.2136E+01  0.3628E+02
     -6.680  0.3851E+01  0.3727E+02
     -6.380  0.5613E+01  0.3862E+02
     -6.080  0.5020E+01  0.4067E+02
     -5.780  0.8651E+01  0.4304E+02
     -5.480  0.4922E+01  0.4485E+02
     -5.181  0.5455E+01  0.4604E+02
     -4.881  0.1391E+02  0.4859E+02
     -4.581  0.5047E+01  0.5128E+02
     -4.281  0.5284E+01  0.5253E+02
     -3.981  0.7187E+01  0.5436E+02
     -3.681  0.8184E+01  0.5746E+02
     -3.382  0.4832E+01  0.5923E+02
     -3.082  0.5297E+01  0.6059E+02
     -2.782  0.1272E+02  0.6404E+02
     -2.482  0.8465E+01  0.6743E+02
     -2.182  0.7284E+01  0.6977E+02
     -1.883  0.2625E+01  0.7159E+02
     -1.583  0.9394E+01  0.7335E+02
     -1.283  0.5643E+01  0.7621E+02
     -0.983  0.2840E+01  0.7743E+02
     -0.683  0.3530E+00  0.7795E+02
     -0.383  0.0000E+00  0.7800E+02
     -0.084  0.0000E+00  0.7800E+02
      0.216  0.0000E+00  0.7800E+02
      0.516  0.0000E+00  0.7800E+02
      0.816  0.1951E+01  0.7827E+02
      1.116  0.5762E+01  0.7968E+02
      1.415  0.9920E+01  0.8179E+02
      1.715  0.1472E+02  0.8581E+02
      2.015  0.1401E+02  0.9018E+02
      2.315  0.7030E+01  0.9284E+02
      2.615  0.7889E+01  0.9503E+02
      2.915  0.4954E+01  0.9642E+02
      3.214  0.1300E+02  0.9772E+02
      3.514  0.4504E+01  0.9988E+02
      3.814  0.4004E+01  0.1014E+03
      4.114  0.1988E+01  0.1027E+03
      4.414  0.3066E+01  0.1034E+03
      4.713  0.3783E+01  0.1044E+03
      5.013  0.4425E+01  0.1057E+03
      5.313  0.4289E+01  0.1072E+03
      5.613  0.3229E+01  0.1083E+03
      5.913  0.4665E+01  0.1096E+03
      6.213  0.2580E+01  0.1107E+03
      6.512  0.1780E+01  0.1115E+03
      6.812  0.5671E+00  0.1120E+03
      7.112  0.0000E+00  0.1120E+03
      7.412  0.0000E+00  0.1120E+03
      7.712  0.0000E+00  0.1120E+03
      8.011  0.0000E+00  0.1120E+03
      8.311  0.0000E+00  0.1120E+03
      8.611  0.0000E+00  0.1120E+03
      8.911  0.0000E+00  0.1120E+03
      9.211  0.0000E+00  0.1120E+03
      9.511  0.0000E+00  0.1120E+03
      9.810  0.0000E+00  0.1120E+03
     10.110  0.0000E+00  0.1120E+03
     10.410  0.0000E+00  0.1120E+03
     10.710  0.0000E+00  0.1120E+03
     11.010  0.0000E+00  0.1120E+03
