       N       E                     dE             d eps       ncg     rms          rms(c)
DAV:   1     0.486094157595E+03    0.48609E+03   -0.33538E+04  5628   0.776E+02
DAV:   2    -0.514185267303E+02   -0.53751E+03   -0.53429E+03  6272   0.238E+02
DAV:   3    -0.774736018176E+02   -0.26055E+02   -0.25995E+02  6328   0.588E+01
DAV:   4    -0.777945677178E+02   -0.32097E+00   -0.32080E+00  5040   0.627E+00
DAV:   5    -0.778028337803E+02   -0.82661E-02   -0.82647E-02  6272   0.891E-01    0.133E+02
DAV:   6    -0.720484721167E+02    0.57544E+01   -0.50122E+01  4816   0.171E+01    0.119E+02
DAV:   7    -0.849306091347E+02   -0.12882E+02   -0.12161E+02  5684   0.265E+01    0.123E+02
DAV:   8    -0.706942893360E+02    0.14236E+02   -0.69980E+01  5096   0.194E+01    0.856E+00
DAV:   9    -0.709768877373E+02   -0.28260E+00   -0.30518E+00  5348   0.477E+00    0.926E+00
DAV:  10    -0.709653360548E+02    0.11552E-01   -0.39563E-02  5712   0.661E-01    0.512E+00
DAV:  11    -0.709579920972E+02    0.73440E-02   -0.64417E-03  5992   0.282E-01    0.288E+00
DAV:  12    -0.709493516119E+02    0.86405E-02   -0.38604E-02  5964   0.539E-01    0.105E+00
DAV:  13    -0.709493687195E+02   -0.17108E-04   -0.33855E-03  6076   0.170E-01    0.357E-01
DAV:  14    -0.709492653644E+02    0.10336E-03   -0.14930E-04  6076   0.365E-02    0.107E-01
DAV:  15    -0.709492179735E+02    0.47391E-04   -0.12911E-04  6076   0.303E-02    0.336E-01
DAV:  16    -0.709492561850E+02   -0.38211E-04   -0.51788E-05  5572   0.250E-02    0.246E-02
DAV:  17    -0.709492978295E+02   -0.41644E-04   -0.14128E-05  5824   0.998E-03    0.356E-02
DAV:  18    -0.709493369120E+02   -0.39083E-04   -0.77273E-06  5488   0.727E-03    0.167E-02
DAV:  19    -0.709494201626E+02   -0.83251E-04   -0.15135E-05  5488   0.901E-03    0.702E-03
DAV:  20    -0.709494405005E+02   -0.20338E-04   -0.89695E-07  5852   0.257E-03    0.494E-03
DAV:  21    -0.709494710500E+02   -0.30550E-04   -0.15703E-06  5460   0.306E-03    0.505E-03
DAV:  22    -0.709494884367E+02   -0.17387E-04   -0.26835E-07  5852   0.123E-03    0.478E-03
DAV:  23    -0.709495003689E+02   -0.11932E-04   -0.15555E-07  5740   0.948E-04    0.111E-03
DAV:  24    -0.709495074178E+02   -0.70489E-05   -0.82298E-08  5600   0.633E-04    0.265E-03
DAV:  25    -0.709495113037E+02   -0.38859E-05   -0.47573E-08  5124   0.486E-04    0.153E-03
DAV:  26    -0.709495125593E+02   -0.12556E-05   -0.99958E-09  4900   0.308E-04    0.188E-04
DAV:  27    -0.709495134887E+02   -0.92946E-06   -0.66636E-09  4396   0.219E-04    0.465E-04
DAV:  28    -0.709495142109E+02   -0.72215E-06   -0.40596E-09  4396   0.218E-04    0.162E-04
DAV:  29    -0.709495143129E+02   -0.10206E-06   -0.38359E-10  4984   0.674E-05    0.823E-05
DAV:  30    -0.709495143655E+02   -0.52556E-07   -0.25027E-10  4172   0.574E-05    0.318E-05
DAV:  31    -0.709495143733E+02   -0.78617E-08    0.39628E-12  4676   0.200E-05
   1 F= -.73388049E+02 E0= -.73388049E+02  d E =0.000000E+00
 Linear response reoptimize wavefunctions
DAV:   1    -0.709495143789E+02    0.24385E+01   -0.13975E-11  3920   0.261E-05
DAV:   2    -0.709495143789E+02    0.00000E+00    0.75918E-12  4088   0.536E-06
 Linear response G [H, r] |phi>, progress :
  Direction:   1
       N       E                     dE             d eps       ncg     rms
RMM:   1    -0.367021808273E+03   -0.36702E+03    0.13824E+03  9706   0.133E+02
RMM:   2    -0.349096052064E+03    0.17926E+02   -0.13103E+02  8508   0.290E+01
RMM:   3    -0.350772368736E+03   -0.16763E+01   -0.66565E+00  9031   0.603E+00
RMM:   4    -0.350857535279E+03   -0.85167E-01   -0.35261E-01  9609   0.121E+00
RMM:   5    -0.350861631058E+03   -0.40958E-02   -0.23800E-02  9735   0.326E-01
RMM:   6    -0.350862387407E+03   -0.75635E-03   -0.14112E-03 10287   0.868E-02
RMM:   7    -0.350862490963E+03   -0.10356E-03   -0.14840E-04 10268   0.274E-02
RMM:   8    -0.350862538100E+03   -0.47136E-04   -0.39664E-04 10525   0.100E-02
RMM:   9    -0.350862503698E+03    0.34401E-04   -0.30288E-05 10631   0.527E-03
RMM:  10    -0.350862523185E+03   -0.19487E-04   -0.22306E-04 10611   0.397E-03
RMM:  11    -0.350862512906E+03    0.10279E-04   -0.12007E-04 10206   0.369E-03
RMM:  12    -0.350862544148E+03   -0.31241E-04   -0.43246E-04  9840   0.364E-03
 Linear response G [H, r] |phi>, progress :
  Direction:   2
       N       E                     dE             d eps       ncg     rms
RMM:   1    -0.374677399611E+03   -0.37468E+03    0.12189E+03  9714   0.133E+02
RMM:   2    -0.368235802979E+03    0.64416E+01   -0.13861E+02  8428   0.287E+01
RMM:   3    -0.369585166391E+03   -0.13494E+01   -0.67498E+00  8978   0.582E+00
RMM:   4    -0.369656952086E+03   -0.71786E-01   -0.35464E-01  9548   0.119E+00
RMM:   5    -0.369659407420E+03   -0.24553E-02   -0.23742E-02  9745   0.301E-01
RMM:   6    -0.369659786563E+03   -0.37914E-03   -0.13250E-03 10210   0.839E-02
RMM:   7    -0.369659845444E+03   -0.58881E-04    0.32763E-04 10314   0.262E-02
RMM:   8    -0.369659811408E+03    0.34036E-04    0.90034E-04 10502   0.955E-03
RMM:   9    -0.369659841285E+03   -0.29877E-04    0.62123E-04 10682   0.492E-03
RMM:  10    -0.369659824118E+03    0.17167E-04    0.79458E-04 10713   0.371E-03
RMM:  11    -0.369659839840E+03   -0.15722E-04    0.63780E-04 10330   0.345E-03
RMM:  12    -0.369659826677E+03    0.13162E-04    0.76937E-04  9941   0.341E-03
 Linear response G [H, r] |phi>, progress :
  Direction:   3
       N       E                     dE             d eps       ncg     rms
RMM:   1    -0.383520322872E+03   -0.38352E+03    0.14220E+03  9530   0.136E+02
RMM:   2    -0.359914840589E+03    0.23605E+02   -0.15744E+02  8276   0.296E+01
RMM:   3    -0.361263241536E+03   -0.13484E+01   -0.98752E+00  8882   0.670E+00
RMM:   4    -0.361415826612E+03   -0.15259E+00   -0.62681E-01  9442   0.141E+00
RMM:   5    -0.361422256735E+03   -0.64301E-02   -0.41989E-02  9374   0.345E-01
RMM:   6    -0.361423216258E+03   -0.95952E-03   -0.47652E-03  9965   0.932E-02
RMM:   7    -0.361423273441E+03   -0.57183E-04   -0.32983E-04 10150   0.268E-02
RMM:   8    -0.361423294253E+03   -0.20812E-04   -0.52691E-05 10538   0.905E-03
RMM:   9    -0.361423296653E+03   -0.24004E-05   -0.85298E-06 10754   0.397E-03
RMM:  10    -0.361423297527E+03   -0.87327E-06   -0.10276E-05 10649   0.273E-03
RMM:  11    -0.361423298028E+03   -0.50135E-06   -0.14071E-05 10375   0.244E-03
RMM:  12    -0.361423297894E+03    0.13444E-06   -0.12620E-05 10175   0.240E-03
RMM:  13    -0.361423298061E+03   -0.16727E-06   -0.14267E-05 10077   0.239E-03
 Linear response to external field (no local field effect), progress :
  Direction:   1
       N       E                     dE             d eps       ncg     rms          rms(c)
RMM:   1    -0.634618951236E+01   -0.63462E+01   -0.40270E+01 10813   0.575E+00
RMM:   2    -0.782721418753E+01   -0.14810E+01   -0.38693E-01  7925   0.122E+00
RMM:   3    -0.784060315890E+01   -0.13389E-01   -0.44328E-02  8417   0.279E-01
RMM:   4    -0.784119099625E+01   -0.58784E-03   -0.24432E-03  8909   0.603E-02
RMM:   5    -0.784121502545E+01   -0.24029E-04   -0.12973E-04  8731   0.139E-02
RMM:   6    -0.784121641771E+01   -0.13923E-05   -0.72050E-06  8362   0.338E-03
RMM:   7    -0.784121649123E+01   -0.73519E-07   -0.68175E-07  8175   0.977E-04
RMM:   8    -0.784121649902E+01   -0.77898E-08   -0.12185E-07  7907   0.300E-04
RMM:   9    -0.784121649969E+01   -0.67165E-09   -0.78591E-08  6866   0.128E-04
 Linear response to external field (no local field effect), progress :
  Direction:   2
       N       E                     dE             d eps       ncg     rms          rms(c)
RMM:   1    -0.647763220759E+01   -0.64776E+01   -0.40211E+01 10560   0.586E+00
RMM:   2    -0.753623197046E+01   -0.10586E+01   -0.37468E-01  7872   0.128E+00
RMM:   3    -0.754877651185E+01   -0.12545E-01   -0.36459E-02  8401   0.286E-01
RMM:   4    -0.754932685447E+01   -0.55034E-03   -0.22552E-03  8876   0.606E-02
RMM:   5    -0.754934980240E+01   -0.22948E-04   -0.12676E-04  8719   0.146E-02
RMM:   6    -0.754935100780E+01   -0.12054E-05   -0.65200E-06  8363   0.334E-03
RMM:   7    -0.754935107164E+01   -0.63833E-07   -0.58771E-07  8169   0.989E-04
RMM:   8    -0.754935107878E+01   -0.71437E-08   -0.86905E-08  8092   0.279E-04
 Linear response to external field (no local field effect), progress :
  Direction:   3
       N       E                     dE             d eps       ncg     rms          rms(c)
RMM:   1    -0.421681186648E+01   -0.42168E+01   -0.21231E+01 10521   0.532E+00
RMM:   2    -0.464895129953E+01   -0.43214E+00   -0.20534E-01  7557   0.105E+00
RMM:   3    -0.465409667712E+01   -0.51454E-02   -0.19593E-02  8259   0.235E-01
RMM:   4    -0.465432469638E+01   -0.22802E-03   -0.83530E-04  8565   0.465E-02
RMM:   5    -0.465433597973E+01   -0.11283E-04   -0.52727E-05  8354   0.115E-02
RMM:   6    -0.465433663086E+01   -0.65112E-06   -0.35213E-06  7991   0.272E-03
RMM:   7    -0.465433666558E+01   -0.34721E-07   -0.37305E-07  7802   0.821E-04
RMM:   8    -0.465433666981E+01   -0.42285E-08   -0.99294E-08  7314   0.246E-04
 Linear response to external field, progress :
  Direction:   1
       N       E                     dE             d eps       ncg     rms          rms(c)
RMM:   1    -0.641973686419E+01   -0.64197E+01   -0.40319E+01 47265   0.576E+00
RMM:   2    -0.768230177982E+01   -0.12626E+01   -0.38064E-01 34833   0.123E+00    0.478E+00
RMM:   3    -0.747960001399E+01    0.20270E+00   -0.23091E-01 34005   0.165E+00    0.270E+00
RMM:   4    -0.763161359701E+01   -0.15201E+00   -0.18761E-01 33163   0.163E+00    0.678E-01
RMM:   5    -0.768684335697E+01   -0.55230E-01   -0.60742E-03 34637   0.297E-01    0.747E-02
RMM:   6    -0.769218376165E+01   -0.53404E-02   -0.59693E-04 37216   0.576E-02    0.421E-02
RMM:   7    -0.769493463614E+01   -0.27509E-02   -0.10023E-05 35800   0.277E-02    0.113E-02
RMM:   8    -0.769603871039E+01   -0.11041E-02   -0.60442E-05 36720   0.731E-03    0.459E-03
RMM:   9    -0.769647241184E+01   -0.43370E-03    0.96743E-06 35890   0.414E-03    0.184E-03
RMM:  10    -0.769655208126E+01   -0.79669E-04   -0.70634E-07 35325   0.146E-03    0.676E-04
RMM:  11    -0.769659207495E+01   -0.39994E-04   -0.26859E-06 35055   0.562E-04    0.218E-04
RMM:  12    -0.769660373888E+01   -0.11664E-04   -0.14492E-06 33779   0.213E-04    0.667E-05
RMM:  13    -0.769660296939E+01    0.76948E-06   -0.12047E-06 28135   0.777E-05    0.377E-05
RMM:  14    -0.769660280729E+01    0.16210E-06   -0.11524E-06 23497   0.712E-05    0.862E-06
 Linear response to external field, progress :
  Direction:   2
       N       E                     dE             d eps       ncg     rms          rms(c)
RMM:   1    -0.642330070682E+01   -0.64233E+01   -0.40355E+01 26123   0.576E+00
RMM:   2    -0.768219273060E+01   -0.12589E+01   -0.38282E-01 19296   0.124E+00    0.478E+00
RMM:   3    -0.747979279390E+01    0.20240E+00   -0.22920E-01 18792   0.166E+00    0.270E+00
RMM:   4    -0.763217921520E+01   -0.15239E+00   -0.19095E-01 18385   0.163E+00    0.675E-01
RMM:   5    -0.768658974438E+01   -0.54411E-01   -0.73253E-03 19205   0.297E-01    0.777E-02
RMM:   6    -0.769205714451E+01   -0.54674E-02   -0.98756E-04 20571   0.585E-02    0.522E-02
RMM:   7    -0.769353099914E+01   -0.14739E-02    0.16219E-04 20821   0.182E-02    0.242E-02
RMM:   8    -0.769592855713E+01   -0.23976E-02   -0.99265E-05 18623   0.154E-02    0.538E-03
RMM:   9    -0.769643636105E+01   -0.50780E-03    0.25616E-05 19520   0.494E-03    0.164E-03
RMM:  10    -0.769652819208E+01   -0.91831E-04   -0.90845E-06 19966   0.147E-03    0.107E-03
RMM:  11    -0.769657139979E+01   -0.43208E-04    0.17840E-06 19342   0.650E-04    0.390E-04
RMM:  12    -0.769658301655E+01   -0.11617E-04    0.66005E-06 19394   0.267E-04    0.884E-05
RMM:  13    -0.769658640690E+01   -0.33904E-05    0.32136E-06 18396   0.111E-04    0.359E-05
RMM:  14    -0.769658559676E+01    0.81014E-06    0.24734E-06 13081   0.675E-05    0.131E-05
RMM:  15    -0.769658507750E+01    0.51927E-06    0.23978E-06  9321   0.591E-05    0.290E-06
 Linear response to external field, progress :
  Direction:   3
       N       E                     dE             d eps       ncg     rms          rms(c)
RMM:   1    -0.421681186648E+01   -0.42168E+01   -0.21231E+01 10521   0.532E+00
RMM:   2    -0.464895129953E+01   -0.43214E+00   -0.20534E-01  7557   0.105E+00    0.455E+00
RMM:   3    -0.753852279459E+00    0.38951E+01   -0.27625E+00  7297   0.433E+00    0.230E+00
RMM:   4    -0.994409536472E+00   -0.24056E+00   -0.16163E+00  7199   0.123E+00    0.903E-01
RMM:   5    -0.806542628350E+00    0.18787E+00   -0.56571E-01  7437   0.616E-01    0.563E-01
RMM:   6    -0.709211045789E+00    0.97332E-01   -0.12519E-01  7522   0.465E-01    0.296E-01
RMM:   7    -0.650859338212E+00    0.58352E-01    0.32490E-01  7676   0.214E-01    0.187E-01
RMM:   8    -0.645938142739E+00    0.49212E-02    0.32627E-01  7564   0.135E-01    0.532E-02
RMM:   9    -0.660542319475E+00   -0.14604E-01    0.17499E-01  7853   0.563E-02    0.480E-02
RMM:  10    -0.664663597382E+00   -0.41213E-02    0.12909E-01  6741   0.394E-02    0.223E-02
RMM:  11    -0.670480047043E+00   -0.58164E-02    0.75245E-02  6592   0.321E-02    0.803E-03
RMM:  12    -0.674152658229E+00   -0.36726E-02    0.41739E-02  6628   0.200E-02    0.672E-03
RMM:  13    -0.677616251827E+00   -0.34636E-02    0.96961E-03  6878   0.122E-02    0.246E-03
RMM:  14    -0.678639925800E+00   -0.10237E-02    0.39209E-04  6950   0.840E-03    0.143E-03
RMM:  15    -0.678375500627E+00    0.26443E-03    0.31804E-03  7046   0.449E-03    0.106E-03
RMM:  16    -0.678529229635E+00   -0.15373E-03    0.14707E-03  6846   0.501E-03    0.434E-04
RMM:  17    -0.678668023951E+00   -0.13879E-03    0.51266E-05  7351   0.811E-04    0.244E-04
RMM:  18    -0.678717376017E+00   -0.49352E-04   -0.50987E-04  6819   0.963E-04    0.160E-04
RMM:  19    -0.678688929939E+00    0.28446E-04   -0.25504E-04  6796   0.264E-04    0.102E-04
RMM:  20    -0.678675972353E+00    0.12958E-04   -0.15052E-04  6756   0.274E-04    0.512E-05
RMM:  21    -0.678693912668E+00   -0.17940E-04   -0.33756E-04  5764   0.202E-04    0.360E-05
RMM:  22    -0.678701146368E+00   -0.72337E-05   -0.40428E-04  5356   0.138E-04    0.179E-05
RMM:  23    -0.678707923093E+00   -0.67767E-05   -0.47222E-04  3991   0.485E-05    0.120E-05
RMM:  24    -0.678704158493E+00    0.37646E-05   -0.43419E-04  4806   0.644E-05    0.616E-06
