 vasp.5.4.1 24Jun15 (build Apr 13 2016 13:07:19) complex                        
  
 executed on           IFC91_ompi date 2019.09.13  23:44:38
 running on   28 total cores
 distrk:  each k-point on   28 cores,    1 groups
 distr:  one band on NCORES_PER_BAND=   1 cores,   28 groups


--------------------------------------------------------------------------------------------------------


 INCAR:
 POTCAR:    PAW_PBE W_sv_GW 23Mar2010             
 POTCAR:    PAW_PBE Se_GW 20Mar2012               

 ----------------------------------------------------------------------------- 
|                                                                             |
|           W    W    AA    RRRRR   N    N  II  N    N   GGGG   !!!           |
|           W    W   A  A   R    R  NN   N  II  NN   N  G    G  !!!           |
|           W    W  A    A  R    R  N N  N  II  N N  N  G       !!!           |
|           W WW W  AAAAAA  RRRRR   N  N N  II  N  N N  G  GGG   !            |
|           WW  WW  A    A  R   R   N   NN  II  N   NN  G    G                |
|           W    W  A    A  R    R  N    N  II  N    N   GGGG   !!!           |
|                                                                             |
|      For optimal performance we recommend to set                            |
|        NCORE= 4 - approx SQRT( number of cores)                             |
|      NCORE specifies how many cores store one orbital (NPAR=cpu/NCORE).     |
|      This setting can  greatly improve the performance of VASP for DFT.     |
|      The default, NPAR=number of cores might be grossly inefficient         |
|      on modern multi-core architectures or massively parallel machines.     |
|      Do your own testing !!!!                                               |
|      Unfortunately you need to use the default for GW and RPA calculations. |
|      (for HF NCORE is supported but not extensively tested yet)             |
|                                                                             |
 ----------------------------------------------------------------------------- 

 POTCAR:    PAW_PBE W_sv_GW 23Mar2010             
   VRHFIN =W: 5p6s5d                                                            
   LEXCH  = PE                                                                  
   EATOM  =  1863.8917 eV,  136.9922 Ry                                         
                                                                                
   TITEL  = PAW_PBE W_sv_GW 23Mar2010                                           
   LULTRA =        F    use ultrasoft PP ?                                      
   IUNSCR =        1    unscreen: 0-lin 1-nonlin 2-no                           
   RPACOR =    1.500    partial core radius                                     
   POMASS =  183.850; ZVAL   =   14.000    mass and valenz                      
   RCORE  =    2.300    outmost cutoff radius                                   
   RWIGS  =    2.600; RWIGS  =    1.376    wigner-seitz radius (au A)           
   ENMAX  =  317.132; ENMIN  =  237.849 eV                                      
   RCLOC  =    1.609    cutoff for local pot                                    
   LCOR   =        T    correct aug charges                                     
   LPAW   =        T    paw PP                                                  
   EAUG   =  807.757                                                            
   DEXC   =    0.000                                                            
   RMAX   =    2.349    core radius for proj-oper                               
   RAUG   =    1.300    factor for augmentation sphere                          
   RDEP   =    2.382    radius for radial grids                                 
   RDEPT  =    1.832    core radius for aug-charge                              
                                                                                
   Atomic configuration                                                         
   14 entries                                                                   
     n  l   j            E        occ.                                          
     1  0  0.50    -69464.1497   2.0000                                         
     2  0  0.50    -11984.7400   2.0000                                         
     2  1  1.50    -10478.3405   6.0000                                         
     3  0  0.50     -2757.5605   2.0000                                         
     3  1  1.50     -2311.6706   6.0000                                         
     3  2  2.50     -1799.5973  10.0000                                         
     4  0  0.50      -566.1609   2.0000                                         
     4  1  1.50      -419.9482   6.0000                                         
     4  2  2.50      -234.8191  10.0000                                         
     4  3  3.50       -29.7363  14.0000                                         
     5  0  0.50       -75.5905   2.0000                                         
     5  1  1.50       -39.9756   6.0000                                         
     5  2  2.50        -2.4479   6.0000                                         
     5  3  2.50        -1.3606   0.0000                                         
   Description                                                                  
     l       E           TYP  RCUT    TYP  RCUT                                 
     0    -75.5905419     23  1.500                                             
     0    -76.9511245     23  1.500                                             
     0    108.8466080     23  1.500                                             
     1    -39.9756040     23  1.800                                             
     1     68.0291300     23  1.800                                             
     2     -2.4478587     23  2.150                                             
     2     -0.0030619     23  2.150                                             
     3      4.0817478     23  2.300                                             
  local pseudopotential read in
  partial core-charges read in
  partial kinetic energy density read in
  kinetic energy density of atom read in
  atomic valenz-charges read in
  non local Contribution for L=           0  read in
    real space projection operators read in
  non local Contribution for L=           0  read in
    real space projection operators read in
  non local Contribution for L=           0  read in
    real space projection operators read in
  non local Contribution for L=           1  read in
    real space projection operators read in
  non local Contribution for L=           1  read in
    real space projection operators read in
  non local Contribution for L=           2  read in
    real space projection operators read in
  non local Contribution for L=           2  read in
    real space projection operators read in
  non local Contribution for L=           3  read in
    real space projection operators read in
    PAW grid and wavefunctions read in
 
   number of l-projection  operators is LMAX  =           8
   number of lm-projection operators is LMMAX =          26
 
 POTCAR:    PAW_PBE Se_GW 20Mar2012               
   VRHFIN =Se: s2p4                                                             
   LEXCH  = PE                                                                  
   EATOM  =   257.1286 eV,   18.8984 Ry                                         
                                                                                
   TITEL  = PAW_PBE Se_GW 20Mar2012                                             
   LULTRA =        F    use ultrasoft PP ?                                      
   IUNSCR =        1    unscreen: 0-lin 1-nonlin 2-no                           
   RPACOR =    1.900    partial core radius                                     
   POMASS =   78.960; ZVAL   =    6.000    mass and valenz                      
   RCORE  =    2.100    outmost cutoff radius                                   
   RWIGS  =    2.200; RWIGS  =    1.164    wigner-seitz radius (au A)           
   ENMAX  =  211.555; ENMIN  =  158.666 eV                                      
   ICORE  =        3    local potential                                         
   LCOR   =        T    correct aug charges                                     
   LPAW   =        T    paw PP                                                  
   EAUG   =  446.842                                                            
   DEXC   =    0.000                                                            
   RMAX   =    2.147    core radius for proj-oper                               
   RAUG   =    1.300    factor for augmentation sphere                          
   RDEP   =    2.177    radius for radial grids                                 
   RDEPT  =    1.928    core radius for aug-charge                              
                                                                                
   Atomic configuration                                                         
   10 entries                                                                   
     n  l   j            E        occ.                                          
     1  0  0.50    -12503.4788   2.0000                                         
     2  0  0.50     -1606.9547   2.0000                                         
     2  1  1.50     -1413.3140   6.0000                                         
     3  0  0.50      -213.4885   2.0000                                         
     3  1  1.50      -152.9538   6.0000                                         
     3  2  2.50       -53.1221  10.0000                                         
     4  0  0.50       -17.2865   2.0000                                         
     4  1  0.50        -6.5110   4.0000                                         
     4  2  2.50        -6.8029   0.0000                                         
     4  3  2.50        -6.8029   0.0000                                         
   Description                                                                  
     l       E           TYP  RCUT    TYP  RCUT                                 
     0    -17.2865391     23  2.100                                             
     0     68.0291300     23  2.100                                             
     1     -6.5110285     23  2.100                                             
     1     81.6349560     23  2.100                                             
     2     -6.8029130     23  2.100                                             
     3     -1.3605826      7  2.100                                             
  local pseudopotential read in
  partial core-charges read in
  partial kinetic energy density read in
  kinetic energy density of atom read in
  atomic valenz-charges read in
  non local Contribution for L=           0  read in
    real space projection operators read in
  non local Contribution for L=           0  read in
    real space projection operators read in
  non local Contribution for L=           1  read in
    real space projection operators read in
  non local Contribution for L=           1  read in
    real space projection operators read in
  non local Contribution for L=           2  read in
    real space projection operators read in
    PAW grid and wavefunctions read in
 
   number of l-projection  operators is LMAX  =           5
   number of lm-projection operators is LMMAX =          13
 
  PAW_PBE W_sv_GW 23Mar2010             :
 energy of atom  1       EATOM=-1863.8917
 kinetic energy error for atom=    0.2291 (will be added to EATOM!!)
  PAW_PBE Se_GW 20Mar2012               :
 energy of atom  2       EATOM= -257.1286
 kinetic energy error for atom=    0.0039 (will be added to EATOM!!)
 
 
 POSCAR:  W Se                                   
  positions in cartesian coordinates
  No initial velocities read in
 exchange correlation table for  LEXCH =        8
   RHO(1)=    0.500       N(1)  =     2000
   RHO(2)=  100.500       N(2)  =     4000
 


--------------------------------------------------------------------------------------------------------


 ion  position               nearest neighbor table
   1  0.167  0.333  0.370-   5 2.55   5 2.55   5 2.55   4 2.55   4 2.55   4 2.55
   2  0.833  0.667  0.500-   6 2.55   7 2.55   6 2.55   7 2.55   6 2.55   7 2.55
   3  0.167  0.333  0.630-   8 2.55   8 2.55   8 2.55   9 2.55   9 2.55   9 2.55
   4  0.833  0.667  0.404-   1 2.55   1 2.55   1 2.55
   5  0.833  0.667  0.337-   1 2.55   1 2.55   1 2.55
   6  0.167  0.333  0.534-   2 2.55   2 2.55   2 2.55
   7  0.167  0.333  0.466-   2 2.55   2 2.55   2 2.55
   8  0.833  0.667  0.663-   3 2.55   3 2.55   3 2.55
   9  0.833  0.667  0.596-   3 2.55   3 2.55   3 2.55
 
  LATTYP: Found a hexagonal cell.
 ALAT       =     3.3190066245
 C/A-ratio  =    15.0647484797
  
  Lattice vectors:
  
 A1 = (   3.3190066245,   0.0000000000,   0.0000000000)
 A2 = (  -1.6595033122,   2.8743440521,   0.0000000000)
 A3 = (   0.0000000000,   0.0000000000,  50.0000000000)


Analysis of symmetry for initial positions (statically):
=====================================================================
 Subroutine PRICEL returns:
 Original cell was already a primitive cell.
 

 Routine SETGRP: Setting up the symmetry group for a 
 hexagonal supercell.


 Subroutine GETGRP returns: Found 12 space group operations
 (whereof  4 operations were pure point group operations)
 out of a pool of 24 trial point group operations.


The static configuration has the point symmetry C_2v.
 The point group associated with its full space group is D_3h.


Analysis of symmetry for dynamics (positions and initial velocities):
=====================================================================
 Subroutine PRICEL returns:
 Original cell was already a primitive cell.
 

 Routine SETGRP: Setting up the symmetry group for a 
 hexagonal supercell.


 Subroutine GETGRP returns: Found 12 space group operations
 (whereof  4 operations were pure point group operations)
 out of a pool of 24 trial point group operations.


The dynamic configuration has the point symmetry C_2v.
 The point group associated with its full space group is D_3h.


 Subroutine INISYM returns: Found 12 space group operations
 (whereof  4 operations are pure point group operations),
 and found     1 'primitive' translations

 
 
 KPOINTS: KPOINTS created by Atomic Simulation Env

Automatic generation of k-mesh.
Space group operators:
 irot       det(A)        alpha          n_x          n_y          n_z        tau_x        tau_y        tau_z
    1     1.000000     0.000000     1.000000     0.000000     0.000000     0.000000     0.000000     0.000000
    2    -1.000000   179.999999     0.000000     0.000000     1.000000     0.000000     0.000000     0.000000
    3    -1.000000   180.000000     1.000000     0.000000     0.000000     0.000000     0.000000     0.000000
    4     1.000000   180.000000     0.000000     1.000000     0.000000     0.000000     0.000000     0.000000
    5    -1.000000    60.000000     0.000000     0.000000    -1.000000     0.000000     0.500000     0.000000
    6     1.000000   120.000000     0.000000     0.000000    -1.000000     0.500000     0.500000     0.000000
    7     1.000000   120.000000     0.000000     0.000000     1.000000     0.000000     0.500000     0.000000
    8    -1.000000    60.000000     0.000000     0.000000     1.000000     0.500000     0.500000     0.000000
    9     1.000000   180.000000     0.866025    -0.500000     0.000000     0.500000     0.500000     0.000000
   10    -1.000000   180.000000     0.500000    -0.866025     0.000000    -0.000000     0.500000     0.000000
   11    -1.000000   180.000000    -0.500000    -0.866025     0.000000     0.500000     0.500000     0.000000
   12     1.000000   180.000000     0.866025     0.500000     0.000000    -0.000000     0.500000     0.000000
 
 Subroutine IBZKPT returns following result:
 ===========================================
 
 Found     37 irreducible k-points:
 
 Following reciprocal coordinates:
            Coordinates               Weight
  0.000000  0.000000  0.000000      1.000000
  0.055556  0.000000  0.000000      6.000000
  0.111111  0.000000  0.000000      6.000000
  0.166667  0.000000  0.000000      6.000000
  0.222222  0.000000  0.000000      6.000000
  0.277778  0.000000  0.000000      6.000000
  0.333333  0.000000  0.000000      6.000000
  0.388889  0.000000  0.000000      6.000000
  0.444444  0.000000  0.000000      6.000000
  0.500000  0.000000  0.000000      3.000000
  0.055556  0.055556  0.000000      6.000000
  0.111111  0.055556  0.000000     12.000000
  0.166667  0.055556  0.000000     12.000000
  0.222222  0.055556  0.000000     12.000000
  0.277778  0.055556  0.000000     12.000000
  0.333333  0.055556  0.000000     12.000000
  0.388889  0.055556  0.000000     12.000000
  0.444444  0.055556  0.000000     12.000000
  0.111111  0.111111  0.000000      6.000000
  0.166667  0.111111  0.000000     12.000000
  0.222222  0.111111  0.000000     12.000000
  0.277778  0.111111  0.000000     12.000000
  0.333333  0.111111  0.000000     12.000000
  0.388889  0.111111  0.000000     12.000000
  0.444444  0.111111  0.000000      6.000000
  0.166667  0.166667  0.000000      6.000000
  0.222222  0.166667  0.000000     12.000000
  0.277778  0.166667  0.000000     12.000000
  0.333333  0.166667  0.000000     12.000000
  0.388889  0.166667  0.000000     12.000000
  0.222222  0.222222  0.000000      6.000000
  0.277778  0.222222  0.000000     12.000000
  0.333333  0.222222  0.000000     12.000000
  0.388889  0.222222  0.000000      6.000000
  0.277778  0.277778  0.000000      6.000000
  0.333333  0.277778  0.000000     12.000000
  0.333333  0.333333  0.000000      2.000000
 
 Following cartesian coordinates:
            Coordinates               Weight
  0.000000  0.000000  0.000000      1.000000
  0.016739  0.009664  0.000000      6.000000
  0.033477  0.019328  0.000000      6.000000
  0.050216  0.028992  0.000000      6.000000
  0.066954  0.038656  0.000000      6.000000
  0.083693  0.048320  0.000000      6.000000
  0.100432  0.057984  0.000000      6.000000
  0.117170  0.067648  0.000000      6.000000
  0.133909  0.077312  0.000000      6.000000
  0.150647  0.086976  0.000000      3.000000
  0.016739  0.028992  0.000000      6.000000
  0.033477  0.038656  0.000000     12.000000
  0.050216  0.048320  0.000000     12.000000
  0.066954  0.057984  0.000000     12.000000
  0.083693  0.067648  0.000000     12.000000
  0.100432  0.077312  0.000000     12.000000
  0.117170  0.086976  0.000000     12.000000
  0.133909  0.096640  0.000000     12.000000
  0.033477  0.057984  0.000000      6.000000
  0.050216  0.067648  0.000000     12.000000
  0.066954  0.077312  0.000000     12.000000
  0.083693  0.086976  0.000000     12.000000
  0.100432  0.096640  0.000000     12.000000
  0.117170  0.106304  0.000000     12.000000
  0.133909  0.115968  0.000000      6.000000
  0.050216  0.086976  0.000000      6.000000
  0.066954  0.096640  0.000000     12.000000
  0.083693  0.106304  0.000000     12.000000
  0.100432  0.115968  0.000000     12.000000
  0.117170  0.125633  0.000000     12.000000
  0.066954  0.115968  0.000000      6.000000
  0.083693  0.125633  0.000000     12.000000
  0.100432  0.135297  0.000000     12.000000
  0.117170  0.144961  0.000000      6.000000
  0.083693  0.144961  0.000000      6.000000
  0.100432  0.154625  0.000000     12.000000
  0.100432  0.173953  0.000000      2.000000
 
 TETIRR: Found    169 inequivalent tetrahedra from     1944
 
 Subroutine IBZKPT_HF returns following result:
 ==============================================
 
 Found    324 k-points in 1st BZ
 the following    324 k-points will be used (e.g. in the exchange kernel)
 Following reciprocal coordinates:   # in IRBZ
  0.000000  0.000000  0.000000    0.00308642   1 t-inv F
  0.055556  0.000000  0.000000    0.00308642   2 t-inv F
  0.111111  0.000000  0.000000    0.00308642   3 t-inv F
  0.166667  0.000000  0.000000    0.00308642   4 t-inv F
  0.222222  0.000000  0.000000    0.00308642   5 t-inv F
  0.277778  0.000000  0.000000    0.00308642   6 t-inv F
  0.333333  0.000000  0.000000    0.00308642   7 t-inv F
  0.388889  0.000000  0.000000    0.00308642   8 t-inv F
  0.444444  0.000000  0.000000    0.00308642   9 t-inv F
  0.500000  0.000000  0.000000    0.00308642  10 t-inv F
  0.055556  0.055556  0.000000    0.00308642  11 t-inv F
  0.111111  0.055556  0.000000    0.00308642  12 t-inv F
  0.166667  0.055556  0.000000    0.00308642  13 t-inv F
  0.222222  0.055556  0.000000    0.00308642  14 t-inv F
  0.277778  0.055556  0.000000    0.00308642  15 t-inv F
  0.333333  0.055556  0.000000    0.00308642  16 t-inv F
  0.388889  0.055556  0.000000    0.00308642  17 t-inv F
  0.444444  0.055556  0.000000    0.00308642  18 t-inv F
  0.111111  0.111111  0.000000    0.00308642  19 t-inv F
  0.166667  0.111111  0.000000    0.00308642  20 t-inv F
  0.222222  0.111111  0.000000    0.00308642  21 t-inv F
  0.277778  0.111111  0.000000    0.00308642  22 t-inv F
  0.333333  0.111111  0.000000    0.00308642  23 t-inv F
  0.388889  0.111111  0.000000    0.00308642  24 t-inv F
  0.444444  0.111111  0.000000    0.00308642  25 t-inv F
  0.166667  0.166667  0.000000    0.00308642  26 t-inv F
  0.222222  0.166667  0.000000    0.00308642  27 t-inv F
  0.277778  0.166667  0.000000    0.00308642  28 t-inv F
  0.333333  0.166667  0.000000    0.00308642  29 t-inv F
  0.388889  0.166667  0.000000    0.00308642  30 t-inv F
  0.222222  0.222222  0.000000    0.00308642  31 t-inv F
  0.277778  0.222222  0.000000    0.00308642  32 t-inv F
  0.333333  0.222222  0.000000    0.00308642  33 t-inv F
  0.388889  0.222222  0.000000    0.00308642  34 t-inv F
  0.277778  0.277778  0.000000    0.00308642  35 t-inv F
  0.333333  0.277778  0.000000    0.00308642  36 t-inv F
  0.333333  0.333333  0.000000    0.00308642  37 t-inv F
 -0.055556  0.055556  0.000000    0.00308642   2 t-inv F
  0.000000 -0.055556 -0.000000    0.00308642   2 t-inv F
 -0.111111  0.111111  0.000000    0.00308642   3 t-inv F
  0.000000 -0.111111 -0.000000    0.00308642   3 t-inv F
 -0.166667  0.166667  0.000000    0.00308642   4 t-inv F
  0.000000 -0.166667 -0.000000    0.00308642   4 t-inv F
 -0.222222  0.222222  0.000000    0.00308642   5 t-inv F
  0.000000 -0.222222 -0.000000    0.00308642   5 t-inv F
 -0.277778  0.277778  0.000000    0.00308642   6 t-inv F
  0.000000 -0.277778 -0.000000    0.00308642   6 t-inv F
 -0.333333  0.333333  0.000000    0.00308642   7 t-inv F
  0.000000 -0.333333 -0.000000    0.00308642   7 t-inv F
 -0.388889  0.388889  0.000000    0.00308642   8 t-inv F
  0.000000 -0.388889 -0.000000    0.00308642   8 t-inv F
 -0.444444  0.444444  0.000000    0.00308642   9 t-inv F
  0.000000 -0.444444 -0.000000    0.00308642   9 t-inv F
 -0.500000  0.500000  0.000000    0.00308642  10 t-inv F
  0.000000 -0.500000 -0.000000    0.00308642  10 t-inv F
 -0.055556  0.111111  0.000000    0.00308642  11 t-inv F
  0.055556 -0.111111 -0.000000    0.00308642  11 t-inv F
 -0.111111  0.055556  0.000000    0.00308642  11 t-inv F
 -0.055556 -0.055556 -0.000000    0.00308642  11 t-inv F
  0.111111 -0.055556  0.000000    0.00308642  11 t-inv F
 -0.111111  0.166667  0.000000    0.00308642  12 t-inv F
  0.055556 -0.166667 -0.000000    0.00308642  12 t-inv F
 -0.166667  0.111111  0.000000    0.00308642  12 t-inv F
 -0.055556 -0.111111 -0.000000    0.00308642  12 t-inv F
  0.166667 -0.055556  0.000000    0.00308642  12 t-inv F
 -0.166667  0.222222  0.000000    0.00308642  13 t-inv F
  0.055556 -0.222222 -0.000000    0.00308642  13 t-inv F
 -0.222222  0.166667  0.000000    0.00308642  13 t-inv F
 -0.055556 -0.166667 -0.000000    0.00308642  13 t-inv F
  0.222222 -0.055556  0.000000    0.00308642  13 t-inv F
 -0.222222  0.277778  0.000000    0.00308642  14 t-inv F
  0.055556 -0.277778 -0.000000    0.00308642  14 t-inv F
 -0.277778  0.222222  0.000000    0.00308642  14 t-inv F
 -0.055556 -0.222222 -0.000000    0.00308642  14 t-inv F
  0.277778 -0.055556  0.000000    0.00308642  14 t-inv F
 -0.277778  0.333333  0.000000    0.00308642  15 t-inv F
  0.055556 -0.333333 -0.000000    0.00308642  15 t-inv F
 -0.333333  0.277778  0.000000    0.00308642  15 t-inv F
 -0.055556 -0.277778 -0.000000    0.00308642  15 t-inv F
  0.333333 -0.055556  0.000000    0.00308642  15 t-inv F
 -0.333333  0.388889  0.000000    0.00308642  16 t-inv F
  0.055556 -0.388889 -0.000000    0.00308642  16 t-inv F
 -0.388889  0.333333  0.000000    0.00308642  16 t-inv F
 -0.055556 -0.333333 -0.000000    0.00308642  16 t-inv F
  0.388889 -0.055556  0.000000    0.00308642  16 t-inv F
 -0.388889  0.444444  0.000000    0.00308642  17 t-inv F
  0.055556 -0.444444 -0.000000    0.00308642  17 t-inv F
 -0.444444  0.388889  0.000000    0.00308642  17 t-inv F
 -0.055556 -0.388889 -0.000000    0.00308642  17 t-inv F
  0.444444 -0.055556  0.000000    0.00308642  17 t-inv F
 -0.444444  0.500000  0.000000    0.00308642  18 t-inv F
  0.055556 -0.500000 -0.000000    0.00308642  18 t-inv F
 -0.500000  0.444444  0.000000    0.00308642  18 t-inv F
 -0.055556 -0.444444 -0.000000    0.00308642  18 t-inv F
  0.500000 -0.055556  0.000000    0.00308642  18 t-inv F
 -0.111111  0.222222  0.000000    0.00308642  19 t-inv F
  0.111111 -0.222222 -0.000000    0.00308642  19 t-inv F
 -0.222222  0.111111  0.000000    0.00308642  19 t-inv F
 -0.111111 -0.111111 -0.000000    0.00308642  19 t-inv F
  0.222222 -0.111111  0.000000    0.00308642  19 t-inv F
 -0.166667  0.277778  0.000000    0.00308642  20 t-inv F
  0.111111 -0.277778 -0.000000    0.00308642  20 t-inv F
 -0.277778  0.166667  0.000000    0.00308642  20 t-inv F
 -0.111111 -0.166667 -0.000000    0.00308642  20 t-inv F
  0.277778 -0.111111  0.000000    0.00308642  20 t-inv F
 -0.222222  0.333333  0.000000    0.00308642  21 t-inv F
  0.111111 -0.333333 -0.000000    0.00308642  21 t-inv F
 -0.333333  0.222222  0.000000    0.00308642  21 t-inv F
 -0.111111 -0.222222 -0.000000    0.00308642  21 t-inv F
  0.333333 -0.111111  0.000000    0.00308642  21 t-inv F
 -0.277778  0.388889  0.000000    0.00308642  22 t-inv F
  0.111111 -0.388889 -0.000000    0.00308642  22 t-inv F
 -0.388889  0.277778  0.000000    0.00308642  22 t-inv F
 -0.111111 -0.277778 -0.000000    0.00308642  22 t-inv F
  0.388889 -0.111111  0.000000    0.00308642  22 t-inv F
 -0.333333  0.444444  0.000000    0.00308642  23 t-inv F
  0.111111 -0.444444 -0.000000    0.00308642  23 t-inv F
 -0.444444  0.333333  0.000000    0.00308642  23 t-inv F
 -0.111111 -0.333333 -0.000000    0.00308642  23 t-inv F
  0.444444 -0.111111  0.000000    0.00308642  23 t-inv F
 -0.388889  0.500000  0.000000    0.00308642  24 t-inv F
  0.111111 -0.500000 -0.000000    0.00308642  24 t-inv F
 -0.500000  0.388889  0.000000    0.00308642  24 t-inv F
 -0.111111 -0.388889 -0.000000    0.00308642  24 t-inv F
  0.500000 -0.111111  0.000000    0.00308642  24 t-inv F
 -0.444444  0.555556  0.000000    0.00308642  25 t-inv F
  0.111111 -0.555556 -0.000000    0.00308642  25 t-inv F
 -0.555556  0.444444  0.000000    0.00308642  25 t-inv F
 -0.111111 -0.444444 -0.000000    0.00308642  25 t-inv F
  0.555556 -0.111111  0.000000    0.00308642  25 t-inv F
 -0.166667  0.333333  0.000000    0.00308642  26 t-inv F
  0.166667 -0.333333 -0.000000    0.00308642  26 t-inv F
 -0.333333  0.166667  0.000000    0.00308642  26 t-inv F
 -0.166667 -0.166667 -0.000000    0.00308642  26 t-inv F
  0.333333 -0.166667  0.000000    0.00308642  26 t-inv F
 -0.222222  0.388889  0.000000    0.00308642  27 t-inv F
  0.166667 -0.388889 -0.000000    0.00308642  27 t-inv F
 -0.388889  0.222222  0.000000    0.00308642  27 t-inv F
 -0.166667 -0.222222 -0.000000    0.00308642  27 t-inv F
  0.388889 -0.166667  0.000000    0.00308642  27 t-inv F
 -0.277778  0.444444  0.000000    0.00308642  28 t-inv F
  0.166667 -0.444444 -0.000000    0.00308642  28 t-inv F
 -0.444444  0.277778  0.000000    0.00308642  28 t-inv F
 -0.166667 -0.277778 -0.000000    0.00308642  28 t-inv F
  0.444444 -0.166667  0.000000    0.00308642  28 t-inv F
 -0.333333  0.500000  0.000000    0.00308642  29 t-inv F
  0.166667 -0.500000 -0.000000    0.00308642  29 t-inv F
 -0.500000  0.333333  0.000000    0.00308642  29 t-inv F
 -0.166667 -0.333333 -0.000000    0.00308642  29 t-inv F
  0.500000 -0.166667  0.000000    0.00308642  29 t-inv F
 -0.388889  0.555556  0.000000    0.00308642  30 t-inv F
  0.166667 -0.555556 -0.000000    0.00308642  30 t-inv F
 -0.555556  0.388889  0.000000    0.00308642  30 t-inv F
 -0.166667 -0.388889 -0.000000    0.00308642  30 t-inv F
  0.555556 -0.166667  0.000000    0.00308642  30 t-inv F
 -0.222222  0.444444  0.000000    0.00308642  31 t-inv F
  0.222222 -0.444444 -0.000000    0.00308642  31 t-inv F
 -0.444444  0.222222  0.000000    0.00308642  31 t-inv F
 -0.222222 -0.222222 -0.000000    0.00308642  31 t-inv F
  0.444444 -0.222222  0.000000    0.00308642  31 t-inv F
 -0.277778  0.500000  0.000000    0.00308642  32 t-inv F
  0.222222 -0.500000 -0.000000    0.00308642  32 t-inv F
 -0.500000  0.277778  0.000000    0.00308642  32 t-inv F
 -0.222222 -0.277778 -0.000000    0.00308642  32 t-inv F
  0.500000 -0.222222  0.000000    0.00308642  32 t-inv F
 -0.333333  0.555556  0.000000    0.00308642  33 t-inv F
  0.222222 -0.555556 -0.000000    0.00308642  33 t-inv F
 -0.555556  0.333333  0.000000    0.00308642  33 t-inv F
 -0.222222 -0.333333 -0.000000    0.00308642  33 t-inv F
  0.555556 -0.222222  0.000000    0.00308642  33 t-inv F
 -0.388889  0.611111  0.000000    0.00308642  34 t-inv F
  0.222222 -0.611111 -0.000000    0.00308642  34 t-inv F
 -0.611111  0.388889  0.000000    0.00308642  34 t-inv F
 -0.222222 -0.388889 -0.000000    0.00308642  34 t-inv F
  0.611111 -0.222222  0.000000    0.00308642  34 t-inv F
 -0.277778  0.555556  0.000000    0.00308642  35 t-inv F
  0.277778 -0.555556 -0.000000    0.00308642  35 t-inv F
 -0.555556  0.277778  0.000000    0.00308642  35 t-inv F
 -0.277778 -0.277778 -0.000000    0.00308642  35 t-inv F
  0.555556 -0.277778  0.000000    0.00308642  35 t-inv F
 -0.333333  0.611111  0.000000    0.00308642  36 t-inv F
  0.277778 -0.611111 -0.000000    0.00308642  36 t-inv F
 -0.611111  0.333333  0.000000    0.00308642  36 t-inv F
 -0.277778 -0.333333 -0.000000    0.00308642  36 t-inv F
  0.611111 -0.277778  0.000000    0.00308642  36 t-inv F
 -0.333333  0.666667  0.000000    0.00308642  37 t-inv F
 -0.055556 -0.000000 -0.000000    0.00308642   2 t-inv T
  0.055556 -0.055556 -0.000000    0.00308642   2 t-inv T
 -0.000000  0.055556  0.000000    0.00308642   2 t-inv T
 -0.111111 -0.000000 -0.000000    0.00308642   3 t-inv T
  0.111111 -0.111111 -0.000000    0.00308642   3 t-inv T
 -0.000000  0.111111  0.000000    0.00308642   3 t-inv T
 -0.166667 -0.000000 -0.000000    0.00308642   4 t-inv T
  0.166667 -0.166667 -0.000000    0.00308642   4 t-inv T
 -0.000000  0.166667  0.000000    0.00308642   4 t-inv T
 -0.222222 -0.000000 -0.000000    0.00308642   5 t-inv T
  0.222222 -0.222222 -0.000000    0.00308642   5 t-inv T
 -0.000000  0.222222  0.000000    0.00308642   5 t-inv T
 -0.277778 -0.000000 -0.000000    0.00308642   6 t-inv T
  0.277778 -0.277778 -0.000000    0.00308642   6 t-inv T
 -0.000000  0.277778  0.000000    0.00308642   6 t-inv T
 -0.333333 -0.000000 -0.000000    0.00308642   7 t-inv T
  0.333333 -0.333333 -0.000000    0.00308642   7 t-inv T
 -0.000000  0.333333  0.000000    0.00308642   7 t-inv T
 -0.388889 -0.000000 -0.000000    0.00308642   8 t-inv T
  0.388889 -0.388889 -0.000000    0.00308642   8 t-inv T
 -0.000000  0.388889  0.000000    0.00308642   8 t-inv T
 -0.444444 -0.000000 -0.000000    0.00308642   9 t-inv T
  0.444444 -0.444444 -0.000000    0.00308642   9 t-inv T
 -0.000000  0.444444  0.000000    0.00308642   9 t-inv T
 -0.111111 -0.055556 -0.000000    0.00308642  12 t-inv T
  0.111111 -0.166667 -0.000000    0.00308642  12 t-inv T
 -0.055556  0.166667  0.000000    0.00308642  12 t-inv T
  0.166667 -0.111111 -0.000000    0.00308642  12 t-inv T
  0.055556  0.111111  0.000000    0.00308642  12 t-inv T
 -0.166667  0.055556 -0.000000    0.00308642  12 t-inv T
 -0.166667 -0.055556 -0.000000    0.00308642  13 t-inv T
  0.166667 -0.222222 -0.000000    0.00308642  13 t-inv T
 -0.055556  0.222222  0.000000    0.00308642  13 t-inv T
  0.222222 -0.166667 -0.000000    0.00308642  13 t-inv T
  0.055556  0.166667  0.000000    0.00308642  13 t-inv T
 -0.222222  0.055556 -0.000000    0.00308642  13 t-inv T
 -0.222222 -0.055556 -0.000000    0.00308642  14 t-inv T
  0.222222 -0.277778 -0.000000    0.00308642  14 t-inv T
 -0.055556  0.277778  0.000000    0.00308642  14 t-inv T
  0.277778 -0.222222 -0.000000    0.00308642  14 t-inv T
  0.055556  0.222222  0.000000    0.00308642  14 t-inv T
 -0.277778  0.055556 -0.000000    0.00308642  14 t-inv T
 -0.277778 -0.055556 -0.000000    0.00308642  15 t-inv T
  0.277778 -0.333333 -0.000000    0.00308642  15 t-inv T
 -0.055556  0.333333  0.000000    0.00308642  15 t-inv T
  0.333333 -0.277778 -0.000000    0.00308642  15 t-inv T
  0.055556  0.277778  0.000000    0.00308642  15 t-inv T
 -0.333333  0.055556 -0.000000    0.00308642  15 t-inv T
 -0.333333 -0.055556 -0.000000    0.00308642  16 t-inv T
  0.333333 -0.388889 -0.000000    0.00308642  16 t-inv T
 -0.055556  0.388889  0.000000    0.00308642  16 t-inv T
  0.388889 -0.333333 -0.000000    0.00308642  16 t-inv T
  0.055556  0.333333  0.000000    0.00308642  16 t-inv T
 -0.388889  0.055556 -0.000000    0.00308642  16 t-inv T
 -0.388889 -0.055556 -0.000000    0.00308642  17 t-inv T
  0.388889 -0.444444 -0.000000    0.00308642  17 t-inv T
 -0.055556  0.444444  0.000000    0.00308642  17 t-inv T
  0.444444 -0.388889 -0.000000    0.00308642  17 t-inv T
  0.055556  0.388889  0.000000    0.00308642  17 t-inv T
 -0.444444  0.055556 -0.000000    0.00308642  17 t-inv T
 -0.444444 -0.055556 -0.000000    0.00308642  18 t-inv T
  0.444444 -0.500000 -0.000000    0.00308642  18 t-inv T
 -0.055556  0.500000  0.000000    0.00308642  18 t-inv T
  0.500000 -0.444444 -0.000000    0.00308642  18 t-inv T
  0.055556  0.444444  0.000000    0.00308642  18 t-inv T
 -0.500000  0.055556 -0.000000    0.00308642  18 t-inv T
 -0.166667 -0.111111 -0.000000    0.00308642  20 t-inv T
  0.166667 -0.277778 -0.000000    0.00308642  20 t-inv T
 -0.111111  0.277778  0.000000    0.00308642  20 t-inv T
  0.277778 -0.166667 -0.000000    0.00308642  20 t-inv T
  0.111111  0.166667  0.000000    0.00308642  20 t-inv T
 -0.277778  0.111111 -0.000000    0.00308642  20 t-inv T
 -0.222222 -0.111111 -0.000000    0.00308642  21 t-inv T
  0.222222 -0.333333 -0.000000    0.00308642  21 t-inv T
 -0.111111  0.333333  0.000000    0.00308642  21 t-inv T
  0.333333 -0.222222 -0.000000    0.00308642  21 t-inv T
  0.111111  0.222222  0.000000    0.00308642  21 t-inv T
 -0.333333  0.111111 -0.000000    0.00308642  21 t-inv T
 -0.277778 -0.111111 -0.000000    0.00308642  22 t-inv T
  0.277778 -0.388889 -0.000000    0.00308642  22 t-inv T
 -0.111111  0.388889  0.000000    0.00308642  22 t-inv T
  0.388889 -0.277778 -0.000000    0.00308642  22 t-inv T
  0.111111  0.277778  0.000000    0.00308642  22 t-inv T
 -0.388889  0.111111 -0.000000    0.00308642  22 t-inv T
 -0.333333 -0.111111 -0.000000    0.00308642  23 t-inv T
  0.333333 -0.444444 -0.000000    0.00308642  23 t-inv T
 -0.111111  0.444444  0.000000    0.00308642  23 t-inv T
  0.444444 -0.333333 -0.000000    0.00308642  23 t-inv T
  0.111111  0.333333  0.000000    0.00308642  23 t-inv T
 -0.444444  0.111111 -0.000000    0.00308642  23 t-inv T
 -0.388889 -0.111111 -0.000000    0.00308642  24 t-inv T
  0.388889 -0.500000 -0.000000    0.00308642  24 t-inv T
 -0.111111  0.500000  0.000000    0.00308642  24 t-inv T
  0.500000 -0.388889 -0.000000    0.00308642  24 t-inv T
  0.111111  0.388889  0.000000    0.00308642  24 t-inv T
 -0.500000  0.111111 -0.000000    0.00308642  24 t-inv T
 -0.222222 -0.166667 -0.000000    0.00308642  27 t-inv T
  0.222222 -0.388889 -0.000000    0.00308642  27 t-inv T
 -0.166667  0.388889  0.000000    0.00308642  27 t-inv T
  0.388889 -0.222222 -0.000000    0.00308642  27 t-inv T
  0.166667  0.222222  0.000000    0.00308642  27 t-inv T
 -0.388889  0.166667 -0.000000    0.00308642  27 t-inv T
 -0.277778 -0.166667 -0.000000    0.00308642  28 t-inv T
  0.277778 -0.444444 -0.000000    0.00308642  28 t-inv T
 -0.166667  0.444444  0.000000    0.00308642  28 t-inv T
  0.444444 -0.277778 -0.000000    0.00308642  28 t-inv T
  0.166667  0.277778  0.000000    0.00308642  28 t-inv T
 -0.444444  0.166667 -0.000000    0.00308642  28 t-inv T
 -0.333333 -0.166667 -0.000000    0.00308642  29 t-inv T
  0.333333 -0.500000 -0.000000    0.00308642  29 t-inv T
 -0.166667  0.500000  0.000000    0.00308642  29 t-inv T
  0.500000 -0.333333 -0.000000    0.00308642  29 t-inv T
  0.166667  0.333333  0.000000    0.00308642  29 t-inv T
 -0.500000  0.166667 -0.000000    0.00308642  29 t-inv T
 -0.388889 -0.166667 -0.000000    0.00308642  30 t-inv T
  0.388889 -0.555556 -0.000000    0.00308642  30 t-inv T
 -0.166667  0.555556  0.000000    0.00308642  30 t-inv T
  0.555556 -0.388889 -0.000000    0.00308642  30 t-inv T
  0.166667  0.388889  0.000000    0.00308642  30 t-inv T
 -0.555556  0.166667 -0.000000    0.00308642  30 t-inv T
 -0.277778 -0.222222 -0.000000    0.00308642  32 t-inv T
  0.277778 -0.500000 -0.000000    0.00308642  32 t-inv T
 -0.222222  0.500000  0.000000    0.00308642  32 t-inv T
  0.500000 -0.277778 -0.000000    0.00308642  32 t-inv T
  0.222222  0.277778  0.000000    0.00308642  32 t-inv T
 -0.500000  0.222222 -0.000000    0.00308642  32 t-inv T
 -0.333333 -0.222222 -0.000000    0.00308642  33 t-inv T
  0.333333 -0.555556 -0.000000    0.00308642  33 t-inv T
 -0.222222  0.555556  0.000000    0.00308642  33 t-inv T
  0.555556 -0.333333 -0.000000    0.00308642  33 t-inv T
  0.222222  0.333333  0.000000    0.00308642  33 t-inv T
 -0.555556  0.222222 -0.000000    0.00308642  33 t-inv T
 -0.333333 -0.277778 -0.000000    0.00308642  36 t-inv T
  0.333333 -0.611111 -0.000000    0.00308642  36 t-inv T
 -0.277778  0.611111  0.000000    0.00308642  36 t-inv T
  0.611111 -0.333333 -0.000000    0.00308642  36 t-inv T
  0.277778  0.333333  0.000000    0.00308642  36 t-inv T
 -0.611111  0.277778 -0.000000    0.00308642  36 t-inv T


--------------------------------------------------------------------------------------------------------




 Dimension of arrays:
   k-points           NKPTS =     37   k-points in BZ     NKDIM =     37   number of bands    NBANDS=     56
   number of dos      NEDOS =    301   number of ions     NIONS =      9
   non local maximal  LDIM  =      8   non local SUM 2l+1 LMDIM =     26
   total plane-waves  NPLWV = 117600
   max r-space proj   IRMAX =      1   max aug-charges    IRDMAX=  10950
   dimension x,y,z NGX =    20 NGY =   20 NGZ =  294
   dimension x,y,z NGXF=    40 NGYF=   40 NGZF=  588
   support grid    NGXF=    40 NGYF=   40 NGZF=  588
   ions per type =               3   6
 NGX,Y,Z   is equivalent  to a cutoff of  10.02, 10.02,  9.78 a.u.
 NGXF,Y,Z  is equivalent  to a cutoff of  20.04, 20.04, 19.55 a.u.


 I would recommend the setting:
   dimension x,y,z NGX =    19 NGY =   19 NGZ =  290
 SYSTEM =  unknown system                          
 POSCAR =   W Se                                   

 Startparameter for this run:
   NWRITE =      2    write-flag & timer
   PREC   = accura    normal or accurate (medium, high low for compatibility)
   ISTART =      0    job   : 0-new  1-cont  2-samecut
   ICHARG =      2    charge: 1-file 2-atom 10-const
   ISPIN  =      1    spin polarized calculation?
   LNONCOLLINEAR =      F non collinear calculations
   LSORBIT =      F    spin-orbit coupling
   INIWAV =      1    electr: 0-lowe 1-rand  2-diag
   LASPH  =      F    aspherical Exc in radial PAW
   METAGGA=      F    non-selfconsistent MetaGGA calc.

 Electronic Relaxation 1
   ENCUT  =  317.1 eV  23.31 Ry    4.83 a.u.   4.82  4.82 72.60*2*pi/ulx,y,z
   ENINI  =  317.1     initial cutoff
   ENAUG  =  807.8 eV  augmentation charge cutoff
   NELM   =     60;   NELMIN=  5; NELMDL= -5     # of ELM steps 
   EDIFF  = 0.1E-07   stopping-criterion for ELM
   LREAL  =      F    real-space projection
   NLSPLINE    = F    spline interpolate recip. space projectors
   LCOMPAT=      F    compatible to vasp.4.4
   GGA_COMPAT  = T    GGA compatible to vasp.4.4-vasp.4.6
   LMAXPAW     = -100 max onsite density
   LMAXMIX     =    2 max onsite mixed and CHGCAR
   VOSKOWN=      0    Vosko Wilk Nusair interpolation
   ROPT   =    0.00000   0.00000
 Ionic relaxation
   EDIFFG = 0.1E-06   stopping-criterion for IOM
   NSW    =      0    number of steps for IOM
   NBLOCK =      1;   KBLOCK =      1    inner block; outer block 
   IBRION =     -1    ionic relax: 0-MD 1-quasi-New 2-CG
   NFREE  =      0    steps in history (QN), initial steepest desc. (CG)
   ISIF   =      2    stress and relaxation
   IWAVPR =     10    prediction:  0-non 1-charg 2-wave 3-comb
   ISYM   =      2    0-nonsym 1-usesym 2-fastsym
   LCORR  =      T    Harris-Foulkes like correction to forces

   POTIM  = 0.5000    time-step for ionic-motion
   TEIN   =    0.0    initial temperature
   TEBEG  =    0.0;   TEEND  =   0.0 temperature during run
   SMASS  =  -3.00    Nose mass-parameter (am)
   estimated Nose-frequenzy (Omega)   =  0.10E-29 period in steps =****** mass=  -0.252E-27a.u.
   SCALEE = 1.0000    scale energy and forces
   NPACO  =    256;   APACO  = 16.0  distance and # of slots for P.C.
   PSTRESS=    0.0 pullay stress

  Mass of Ions in am
   POMASS = 183.85 78.96
  Ionic Valenz
   ZVAL   =  14.00  6.00
  Atomic Wigner-Seitz radii
   RWIGS  =  -1.00 -1.00
  virtual crystal weights 
   VCA    =   1.00  1.00
   NELECT =      78.0000    total number of electrons
   NUPDOWN=      -1.0000    fix difference up-down

 DOS related values:
   EMIN   =  10.00;   EMAX   =-10.00  energy-range for DOS
   EFERMI =   0.00
   ISMEAR =    -5;   SIGMA  =   0.01  broadening in eV -4-tet -1-fermi 0-gaus

 Electronic relaxation 2 (details)
   IALGO  =     38    algorithm
   LDIAG  =      T    sub-space diagonalisation (order eigenvalues)
   LSUBROT=      F    optimize rotation matrix (better conditioning)
   TURBO    =      0    0=normal 1=particle mesh
   IRESTART =      0    0=no restart 2=restart with 2 vectors
   NREBOOT  =      0    no. of reboots
   NMIN     =      0    reboot dimension
   EREF     =   0.00    reference energy to select bands
   IMIX   =      4    mixing-type and parameters
     AMIX     =   0.40;   BMIX     =  1.00
     AMIX_MAG =   1.60;   BMIX_MAG =  1.00
     AMIN     =   0.10
     WC   =   100.;   INIMIX=   1;  MIXPRE=   1;  MAXMIX= -45

 Intra band minimization:
   WEIMIN = 0.0000     energy-eigenvalue tresh-hold
   EBREAK =  0.45E-10  absolut break condition
   DEPER  =   0.30     relativ break condition  

   TIME   =   0.40     timestep for ELM

  volume/ion in A,a.u.               =      53.00       357.66
  Fermi-wavevector in a.u.,A,eV,Ry     =   0.895229  1.691737 10.904181  0.801435
  Thomas-Fermi vector in A             =   2.017534
 
 Write flags
   LWAVE  =      T    write WAVECAR
   LCHARG =      T    write CHGCAR
   LVTOT  =      F    write LOCPOT, total local potential
   LVHAR  =      F    write LOCPOT, Hartree potential only
   LELF   =      F    write electronic localiz. function (ELF)
   LORBIT =      0    0 simple, 1 ext, 2 COOP (PROOUT)


 Dipole corrections
   LMONO  =      F    monopole corrections only (constant potential shift)
   LDIPOL =      F    correct potential (dipole corrections)
   IDIPOL =      0    1-x, 2-y, 3-z, 4-all directions 
   EPSILON=  1.0000000 bulk dielectric constant

 Exchange correlation treatment:
   GGA     =    PE    GGA type
   LEXCH   =     8    internal setting for exchange type
   VOSKOWN=      0    Vosko Wilk Nusair interpolation
   LHFCALC =     F    Hartree Fock is set to
   LHFONE  =     F    Hartree Fock one center treatment
   AEXX    =    0.0000 exact exchange contribution

 Linear response parameters
   LEPSILON=     T    determine dielectric tensor
   LRPA    =     F    only Hartree local field effects (RPA)
   LNABLA  =     F    use nabla operator in PAW spheres
   LVEL    =     F    velocity operator in full k-point grid
   LINTERFAST=   F  fast interpolation
   KINTER  =     0    interpolate to denser k-point grid
   CSHIFT  =0.1000    complex shift for real part using Kramers Kronig
   OMEGAMAX=  -1.0    maximum frequency
   DEG_THRESHOLD= 0.2000000E-02 threshold for treating states as degnerate
   RTIME   =    0.100 relaxation time in fs

 Orbital magnetization related:
   ORBITALMAG=     F  switch on orbital magnetization
   LCHIMAG   =     F  perturbation theory with respect to B field
   DQ        =  0.001000  dq finite difference perturbation B field



--------------------------------------------------------------------------------------------------------


 Static calculation
 charge density and potential will be updated during run
 non-spin polarized calculation
 Variant of blocked Davidson
 Davidson routine will perform the subspace rotation
 perform sub-space diagonalisation
    after iterative eigenvector-optimisation
 modified Broyden-mixing scheme, WC =      100.0
 initial mixing is a Kerker type mixing with AMIX =  0.4000 and BMIX =      1.0000
 Hartree-type preconditioning will be used
 using additional bands           17
 reciprocal scheme for non local part
 use partial core corrections
 calculate Harris-corrections to forces 
   (improved forces if not selfconsistent)
 use gradient corrections 
 use of overlap-Matrix (Vanderbilt PP)
 Fermi weights with tetrahedron method with Bloechl corrections


--------------------------------------------------------------------------------------------------------


  energy-cutoff  :      317.13
  volume of cell :      477.00
      direct lattice vectors                 reciprocal lattice vectors
     3.319006624  0.000000000  0.000000000     0.301294970  0.173952732  0.000000000
    -1.659503312  2.874344052  0.000000000     0.000000000  0.347905464  0.000000000
     0.000000000  0.000000000 50.000000000     0.000000000  0.000000000  0.020000000

  length of vectors
     3.319006624  3.319006624 50.000000000     0.347905464  0.347905464  0.020000000


 
 k-points in units of 2pi/SCALE and weight: KPOINTS created by Atomic Simulation Env
   0.00000000  0.00000000  0.00000000       0.003
   0.01673861  0.00966404  0.00000000       0.019
   0.03347722  0.01932808  0.00000000       0.019
   0.05021583  0.02899212  0.00000000       0.019
   0.06695444  0.03865616  0.00000000       0.019
   0.08369305  0.04832020  0.00000000       0.019
   0.10043166  0.05798424  0.00000000       0.019
   0.11717027  0.06764828  0.00000000       0.019
   0.13390888  0.07731233  0.00000000       0.019
   0.15064748  0.08697637  0.00000000       0.009
   0.01673861  0.02899212  0.00000000       0.019
   0.03347722  0.03865616  0.00000000       0.037
   0.05021583  0.04832020  0.00000000       0.037
   0.06695444  0.05798424  0.00000000       0.037
   0.08369305  0.06764828  0.00000000       0.037
   0.10043166  0.07731233  0.00000000       0.037
   0.11717027  0.08697637  0.00000000       0.037
   0.13390888  0.09664041  0.00000000       0.037
   0.03347722  0.05798424  0.00000000       0.019
   0.05021583  0.06764828  0.00000000       0.037
   0.06695444  0.07731233  0.00000000       0.037
   0.08369305  0.08697637  0.00000000       0.037
   0.10043166  0.09664041  0.00000000       0.037
   0.11717027  0.10630445  0.00000000       0.037
   0.13390888  0.11596849  0.00000000       0.019
   0.05021583  0.08697637  0.00000000       0.019
   0.06695444  0.09664041  0.00000000       0.037
   0.08369305  0.10630445  0.00000000       0.037
   0.10043166  0.11596849  0.00000000       0.037
   0.11717027  0.12563253  0.00000000       0.037
   0.06695444  0.11596849  0.00000000       0.019
   0.08369305  0.12563253  0.00000000       0.037
   0.10043166  0.13529657  0.00000000       0.037
   0.11717027  0.14496061  0.00000000       0.019
   0.08369305  0.14496061  0.00000000       0.019
   0.10043166  0.15462465  0.00000000       0.037
   0.10043166  0.17395273  0.00000000       0.006
 
 k-points in reciprocal lattice and weights: KPOINTS created by Atomic Simulation Env
   0.00000000  0.00000000  0.00000000       0.003
   0.05555556  0.00000000  0.00000000       0.019
   0.11111111  0.00000000  0.00000000       0.019
   0.16666667  0.00000000  0.00000000       0.019
   0.22222222  0.00000000  0.00000000       0.019
   0.27777778  0.00000000  0.00000000       0.019
   0.33333333  0.00000000  0.00000000       0.019
   0.38888889  0.00000000  0.00000000       0.019
   0.44444444  0.00000000  0.00000000       0.019
   0.50000000  0.00000000  0.00000000       0.009
   0.05555556  0.05555556  0.00000000       0.019
   0.11111111  0.05555556  0.00000000       0.037
   0.16666667  0.05555556  0.00000000       0.037
   0.22222222  0.05555556  0.00000000       0.037
   0.27777778  0.05555556  0.00000000       0.037
   0.33333333  0.05555556  0.00000000       0.037
   0.38888889  0.05555556  0.00000000       0.037
   0.44444444  0.05555556  0.00000000       0.037
   0.11111111  0.11111111  0.00000000       0.019
   0.16666667  0.11111111  0.00000000       0.037
   0.22222222  0.11111111  0.00000000       0.037
   0.27777778  0.11111111  0.00000000       0.037
   0.33333333  0.11111111  0.00000000       0.037
   0.38888889  0.11111111  0.00000000       0.037
   0.44444444  0.11111111  0.00000000       0.019
   0.16666667  0.16666667  0.00000000       0.019
   0.22222222  0.16666667  0.00000000       0.037
   0.27777778  0.16666667  0.00000000       0.037
   0.33333333  0.16666667  0.00000000       0.037
   0.38888889  0.16666667  0.00000000       0.037
   0.22222222  0.22222222  0.00000000       0.019
   0.27777778  0.22222222  0.00000000       0.037
   0.33333333  0.22222222  0.00000000       0.037
   0.38888889  0.22222222  0.00000000       0.019
   0.27777778  0.27777778  0.00000000       0.019
   0.33333333  0.27777778  0.00000000       0.037
   0.33333333  0.33333333  0.00000000       0.006
 
 position of ions in fractional coordinates (direct lattice) 
   0.16666667  0.33333333  0.37020000
   0.83333333  0.66666667  0.50000000
   0.16666667  0.33333333  0.62980000
   0.83333333  0.66666667  0.40378553
   0.83333333  0.66666667  0.33661447
   0.16666667  0.33333333  0.53358553
   0.16666667  0.33333333  0.46641447
   0.83333333  0.66666667  0.66338553
   0.83333333  0.66666667  0.59621447
 
 position of ions in cartesian coordinates  (Angst):
  -0.00000000  0.95811468 18.51000000
   1.65950331  1.91622937 25.00000000
  -0.00000000  0.95811468 31.49000000
   1.65950331  1.91622937 20.18927640
   1.65950331  1.91622937 16.83072360
  -0.00000000  0.95811468 26.67927640
  -0.00000000  0.95811468 23.32072360
   1.65950331  1.91622937 33.16927640
   1.65950331  1.91622937 29.81072360
 


--------------------------------------------------------------------------------------------------------


 k-point  1 :   0.0000 0.0000 0.0000  plane waves:    6121
 k-point  2 :   0.0556 0.0000 0.0000  plane waves:    6111
 k-point  3 :   0.1111 0.0000 0.0000  plane waves:    6099
 k-point  4 :   0.1667 0.0000 0.0000  plane waves:    6067
 k-point  5 :   0.2222 0.0000 0.0000  plane waves:    6078
 k-point  6 :   0.2778 0.0000 0.0000  plane waves:    6110
 k-point  7 :   0.3333 0.0000 0.0000  plane waves:    6112
 k-point  8 :   0.3889 0.0000 0.0000  plane waves:    6106
 k-point  9 :   0.4444 0.0000 0.0000  plane waves:    6154
 k-point 10 :   0.5000 0.0000 0.0000  plane waves:    6148
 k-point 11 :   0.0556 0.0556 0.0000  plane waves:    6097
 k-point 12 :   0.1111 0.0556 0.0000  plane waves:    6081
 k-point 13 :   0.1667 0.0556 0.0000  plane waves:    6065
 k-point 14 :   0.2222 0.0556 0.0000  plane waves:    6087
 k-point 15 :   0.2778 0.0556 0.0000  plane waves:    6111
 k-point 16 :   0.3333 0.0556 0.0000  plane waves:    6129
 k-point 17 :   0.3889 0.0556 0.0000  plane waves:    6117
 k-point 18 :   0.4444 0.0556 0.0000  plane waves:    6146
 k-point 19 :   0.1111 0.1111 0.0000  plane waves:    6073
 k-point 20 :   0.1667 0.1111 0.0000  plane waves:    6075
 k-point 21 :   0.2222 0.1111 0.0000  plane waves:    6102
 k-point 22 :   0.2778 0.1111 0.0000  plane waves:    6123
 k-point 23 :   0.3333 0.1111 0.0000  plane waves:    6123
 k-point 24 :   0.3889 0.1111 0.0000  plane waves:    6135
 k-point 25 :   0.4444 0.1111 0.0000  plane waves:    6144
 k-point 26 :   0.1667 0.1667 0.0000  plane waves:    6095
 k-point 27 :   0.2222 0.1667 0.0000  plane waves:    6106
 k-point 28 :   0.2778 0.1667 0.0000  plane waves:    6111
 k-point 29 :   0.3333 0.1667 0.0000  plane waves:    6126
 k-point 30 :   0.3889 0.1667 0.0000  plane waves:    6142
 k-point 31 :   0.2222 0.2222 0.0000  plane waves:    6129
 k-point 32 :   0.2778 0.2222 0.0000  plane waves:    6122
 k-point 33 :   0.3333 0.2222 0.0000  plane waves:    6162
 k-point 34 :   0.3889 0.2222 0.0000  plane waves:    6183
 k-point 35 :   0.2778 0.2778 0.0000  plane waves:    6135
 k-point 36 :   0.3333 0.2778 0.0000  plane waves:    6164
 k-point 37 :   0.3333 0.3333 0.0000  plane waves:    6165

 maximum and minimum number of plane-waves per node :      6183     6065

 maximum number of plane-waves:      6183
 maximum index in each direction: 
   IXMAX=    4   IYMAX=    4   IZMAX=   72
   IXMIN=   -5   IYMIN=   -5   IZMIN=  -72

 NGX is ok and might be reduce to  20
 NGY is ok and might be reduce to  20
 NGZ is ok and might be reduce to 290

 serial   3D FFT for wavefunctions
 parallel 3D FFT for charge:
    minimum data exchange during FFTs selected (reduces bandwidth)


 total amount of memory used by VASP on root node   143247. kBytes
========================================================================

   base      :      30000. kBytes
   nonl-proj :      96136. kBytes
   fftplans  :       1943. kBytes
   grid      :       7351. kBytes
   one-center:        292. kBytes
   wavefun   :       7525. kBytes
 
     INWAV:  cpu time    0.0000: real time    0.0000
 Broyden mixing: mesh for mixing (old mesh)
   NGX =  9   NGY =  9   NGZ =145
  (NGX  = 40   NGY  = 40   NGZ  =588)
  gives a total of  11745 points

 initial charge density was supplied:
 charge density of overlapping atoms calculated
 number of electron      78.0000000 magnetization 
 keeping initial charge density in first step


--------------------------------------------------------------------------------------------------------


 Maximum index for augmentation-charges          872 (set IRDMAX)


--------------------------------------------------------------------------------------------------------


 First call to EWALD:  gamma=   0.227
 Maximum number of real-space cells 7x 7x 1
 Maximum number of reciprocal cells 1x 1x15

 FEWALD executed in parallel
    FEWALD:  cpu time    0.0020: real time    0.0012


----------------------------------------- Iteration    1(   1)  ---------------------------------------


    POTLOK:  cpu time    0.0300: real time    0.0302
    SETDIJ:  cpu time    0.0060: real time    0.0057
     EDDAV:  cpu time    4.1124: real time    4.1205
 BZINTS: Fermi energy:  9.569579; 78.000000 electrons
         Band energy:-876.848222;  BLOECHL correction: -0.124000
       DOS:  cpu time    0.0170: real time    0.0166
    --------------------------------------------
      LOOP:  cpu time    4.1654: real time    4.1751

 eigenvalue-minimisations  :  5628
 total energy-change (2. order) : 0.4860942E+03  (-0.3353760E+04)
 number of electron      78.0000000 magnetization 
 augmentation part       78.0000000 magnetization 

 Free energy of the ion-electron system (eV)
  ---------------------------------------------------
  alpha Z        PSCENC =       130.51048580
  Ewald energy   TEWEN  =     88920.53311768
  -Hartree energ DENC   =    -95147.64610876
  -exchange      EXHF   =         0.00000000
  -V(xc)+E(xc)   XCENC  =       -58.45200531
  PAW double counting   =      5935.97172241    -5551.71123895
  entropy T*S    EENTRO =         0.00000000
  eigenvalues    EBANDS =      -876.84822188
  atomic energy  EATOM  =      7133.73640661
  Solvation  Ediel_sol  =         0.00000000
  ---------------------------------------------------
  free energy    TOTEN  =       486.09415759 eV

  energy without entropy =      486.09415759  energy(sigma->0) =      486.09415759


--------------------------------------------------------------------------------------------------------




----------------------------------------- Iteration    1(   2)  ---------------------------------------


     EDDAV:  cpu time    4.5163: real time    4.5200
 BZINTS: Fermi energy:  1.527483; 78.000000 electrons
         Band energy:***********;  BLOECHL correction:  0.000000
       DOS:  cpu time    0.0030: real time    0.0031
    --------------------------------------------
      LOOP:  cpu time    4.5223: real time    4.5276

 eigenvalue-minimisations  :  6272
 total energy-change (2. order) :-0.5375127E+03  (-0.5342878E+03)
 number of electron      78.0000000 magnetization 
 augmentation part       78.0000000 magnetization 

 Free energy of the ion-electron system (eV)
  ---------------------------------------------------
  alpha Z        PSCENC =       130.51048580
  Ewald energy   TEWEN  =     88920.53311768
  -Hartree energ DENC   =    -95147.64610876
  -exchange      EXHF   =         0.00000000
  -V(xc)+E(xc)   XCENC  =       -58.45200531
  PAW double counting   =      5935.97172241    -5551.71123895
  entropy T*S    EENTRO =         0.00000000
  eigenvalues    EBANDS =     -1414.36090620
  atomic energy  EATOM  =      7133.73640661
  Solvation  Ediel_sol  =         0.00000000
  ---------------------------------------------------
  free energy    TOTEN  =       -51.41852673 eV

  energy without entropy =      -51.41852673  energy(sigma->0) =      -51.41852673


--------------------------------------------------------------------------------------------------------




----------------------------------------- Iteration    1(   3)  ---------------------------------------


     EDDAV:  cpu time    4.6363: real time    4.6411
 BZINTS: Fermi energy:  0.122334; 78.000000 electrons
         Band energy:***********;  BLOECHL correction:  0.000000
       DOS:  cpu time    0.0030: real time    0.0034
    --------------------------------------------
      LOOP:  cpu time    4.6403: real time    4.6478

 eigenvalue-minimisations  :  6328
 total energy-change (2. order) :-0.2605508E+02  (-0.2599463E+02)
 number of electron      78.0000000 magnetization 
 augmentation part       78.0000000 magnetization 

 Free energy of the ion-electron system (eV)
  ---------------------------------------------------
  alpha Z        PSCENC =       130.51048580
  Ewald energy   TEWEN  =     88920.53311768
  -Hartree energ DENC   =    -95147.64610876
  -exchange      EXHF   =         0.00000000
  -V(xc)+E(xc)   XCENC  =       -58.45200531
  PAW double counting   =      5935.97172241    -5551.71123895
  entropy T*S    EENTRO =         0.00000000
  eigenvalues    EBANDS =     -1440.41598129
  atomic energy  EATOM  =      7133.73640661
  Solvation  Ediel_sol  =         0.00000000
  ---------------------------------------------------
  free energy    TOTEN  =       -77.47360182 eV

  energy without entropy =      -77.47360182  energy(sigma->0) =      -77.47360182


--------------------------------------------------------------------------------------------------------




----------------------------------------- Iteration    1(   4)  ---------------------------------------


     EDDAV:  cpu time    3.7214: real time    3.7262
 BZINTS: Fermi energy:  0.099246; 78.000000 electrons
         Band energy:***********;  BLOECHL correction:  0.000000
       DOS:  cpu time    0.0030: real time    0.0034
    --------------------------------------------
      LOOP:  cpu time    3.7254: real time    3.7320

 eigenvalue-minimisations  :  5040
 total energy-change (2. order) :-0.3209659E+00  (-0.3208026E+00)
 number of electron      78.0000000 magnetization 
 augmentation part       78.0000000 magnetization 

 Free energy of the ion-electron system (eV)
  ---------------------------------------------------
  alpha Z        PSCENC =       130.51048580
  Ewald energy   TEWEN  =     88920.53311768
  -Hartree energ DENC   =    -95147.64610876
  -exchange      EXHF   =         0.00000000
  -V(xc)+E(xc)   XCENC  =       -58.45200531
  PAW double counting   =      5935.97172241    -5551.71123895
  entropy T*S    EENTRO =         0.00000000
  eigenvalues    EBANDS =     -1440.73694719
  atomic energy  EATOM  =      7133.73640661
  Solvation  Ediel_sol  =         0.00000000
  ---------------------------------------------------
  free energy    TOTEN  =       -77.79456772 eV

  energy without entropy =      -77.79456772  energy(sigma->0) =      -77.79456772


--------------------------------------------------------------------------------------------------------




----------------------------------------- Iteration    1(   5)  ---------------------------------------


     EDDAV:  cpu time    4.5843: real time    4.5891
 BZINTS: Fermi energy:  0.035859; 78.000000 electrons
         Band energy:***********;  BLOECHL correction:  0.000000
       DOS:  cpu time    0.0030: real time    0.0034
    CHARGE:  cpu time    0.1560: real time    0.1563
    MIXING:  cpu time    0.0020: real time    0.0012
    --------------------------------------------
      LOOP:  cpu time    4.7463: real time    4.7525

 eigenvalue-minimisations  :  6272
 total energy-change (2. order) :-0.8266063E-02  (-0.8264686E-02)
 number of electron      77.9999996 magnetization 
 augmentation part      -13.2712616 magnetization 

 Broyden mixing:
  rms(total) = 0.13286E+02    rms(broyden)= 0.13286E+02
  rms(prec ) = 0.13289E+02
  weight for this iteration     100.00

 Free energy of the ion-electron system (eV)
  ---------------------------------------------------
  alpha Z        PSCENC =       130.51048580
  Ewald energy   TEWEN  =     88920.53311768
  -Hartree energ DENC   =    -95147.64610876
  -exchange      EXHF   =         0.00000000
  -V(xc)+E(xc)   XCENC  =       -58.45200531
  PAW double counting   =      5935.97172241    -5551.71123895
  entropy T*S    EENTRO =         0.00000000
  eigenvalues    EBANDS =     -1440.74521325
  atomic energy  EATOM  =      7133.73640661
  Solvation  Ediel_sol  =         0.00000000
  ---------------------------------------------------
  free energy    TOTEN  =       -77.80283378 eV

  energy without entropy =      -77.80283378  energy(sigma->0) =      -77.80283378


--------------------------------------------------------------------------------------------------------




----------------------------------------- Iteration    1(   6)  ---------------------------------------


    POTLOK:  cpu time    0.0270: real time    0.0277
    SETDIJ:  cpu time    0.0060: real time    0.0057
     EDDAV:  cpu time    3.5715: real time    3.5744
 BZINTS: Fermi energy: -1.330201; 78.000000 electrons
         Band energy:***********;  BLOECHL correction:  0.000000
       DOS:  cpu time    0.0040: real time    0.0034
    CHARGE:  cpu time    0.1560: real time    0.1563
    MIXING:  cpu time    0.0010: real time    0.0011
    --------------------------------------------
      LOOP:  cpu time    3.7654: real time    3.7716

 eigenvalue-minimisations  :  4816
 total energy-change (2. order) : 0.5754362E+01  (-0.5012188E+01)
 number of electron      77.9999996 magnetization 
 augmentation part      -12.3925814 magnetization 

 Broyden mixing:
  rms(total) = 0.11931E+02    rms(broyden)= 0.11931E+02
  rms(prec ) = 0.11932E+02
  weight for this iteration     100.00

 eigenvalues of (default mixing * dielectric matrix)
  average eigenvalue GAMMA=   3.9238
  3.9238

 Free energy of the ion-electron system (eV)
  ---------------------------------------------------
  alpha Z        PSCENC =       130.51048580
  Ewald energy   TEWEN  =     88920.53311768
  -Hartree energ DENC   =    -95026.79279886
  -exchange      EXHF   =         0.00000000
  -V(xc)+E(xc)   XCENC  =       -60.57949458
  PAW double counting   =      7257.36492688    -6877.58052171
  entropy T*S    EENTRO =         0.00000000
  eigenvalues    EBANDS =     -1549.24059392
  atomic energy  EATOM  =      7133.73640661
  Solvation  Ediel_sol  =         0.00000000
  ---------------------------------------------------
  free energy    TOTEN  =       -72.04847212 eV

  energy without entropy =      -72.04847212  energy(sigma->0) =      -72.04847212


--------------------------------------------------------------------------------------------------------




----------------------------------------- Iteration    1(   7)  ---------------------------------------


    POTLOK:  cpu time    0.0340: real time    0.0347
    SETDIJ:  cpu time    0.0060: real time    0.0058
     EDDAV:  cpu time    4.2084: real time    4.2119
 BZINTS: Fermi energy:  2.160400; 78.000000 electrons
         Band energy:***********;  BLOECHL correction:  0.000000
       DOS:  cpu time    0.0030: real time    0.0034
    CHARGE:  cpu time    0.1550: real time    0.1559
    MIXING:  cpu time    0.0020: real time    0.0011
    --------------------------------------------
      LOOP:  cpu time    4.4093: real time    4.4251

 eigenvalue-minimisations  :  5684
 total energy-change (2. order) :-0.1288214E+02  (-0.1216085E+02)
 number of electron      77.9999996 magnetization 
 augmentation part      -13.4307357 magnetization 

 Broyden mixing:
  rms(total) = 0.12282E+02    rms(broyden)= 0.12282E+02
  rms(prec ) = 0.12293E+02
  weight for this iteration     100.00

 eigenvalues of (default mixing * dielectric matrix)
  average eigenvalue GAMMA=   1.4681
  0.8128  2.1233

 Free energy of the ion-electron system (eV)
  ---------------------------------------------------
  alpha Z        PSCENC =       130.51048580
  Ewald energy   TEWEN  =     88920.53311768
  -Hartree energ DENC   =    -95265.32465300
  -exchange      EXHF   =         0.00000000
  -V(xc)+E(xc)   XCENC  =       -59.50072827
  PAW double counting   =     11751.03944123   -11359.29773014
  entropy T*S    EENTRO =         0.00000000
  eigenvalues    EBANDS =     -1336.62694905
  atomic energy  EATOM  =      7133.73640661
  Solvation  Ediel_sol  =         0.00000000
  ---------------------------------------------------
  free energy    TOTEN  =       -84.93060913 eV

  energy without entropy =      -84.93060913  energy(sigma->0) =      -84.93060913


--------------------------------------------------------------------------------------------------------




----------------------------------------- Iteration    1(   8)  ---------------------------------------


    POTLOK:  cpu time    0.0270: real time    0.0280
    SETDIJ:  cpu time    0.0060: real time    0.0058
     EDDAV:  cpu time    3.8054: real time    3.8081
 BZINTS: Fermi energy: -0.745920; 78.000000 electrons
         Band energy:***********;  BLOECHL correction:  0.000000
       DOS:  cpu time    0.0030: real time    0.0030
    CHARGE:  cpu time    0.1640: real time    0.1632
    MIXING:  cpu time    0.0010: real time    0.0010
    --------------------------------------------
      LOOP:  cpu time    4.0074: real time    4.0134

 eigenvalue-minimisations  :  5096
 total energy-change (2. order) : 0.1423632E+02  (-0.6997977E+01)
 number of electron      77.9999996 magnetization 
 augmentation part      -12.6356383 magnetization 

 Broyden mixing:
  rms(total) = 0.85625E+00    rms(broyden)= 0.85615E+00
  rms(prec ) = 0.85633E+00
  weight for this iteration     100.00

 eigenvalues of (default mixing * dielectric matrix)
  average eigenvalue GAMMA=   1.4946
  2.5825  1.0961  0.8051

 Free energy of the ion-electron system (eV)
  ---------------------------------------------------
  alpha Z        PSCENC =       130.51048580
  Ewald energy   TEWEN  =     88920.53311768
  -Hartree energ DENC   =    -95080.51143014
  -exchange      EXHF   =         0.00000000
  -V(xc)+E(xc)   XCENC  =       -60.75280221
  PAW double counting   =      9439.04280268    -9054.59281755
  entropy T*S    EENTRO =         0.00000000
  eigenvalues    EBANDS =     -1498.66005220
  atomic energy  EATOM  =      7133.73640661
  Solvation  Ediel_sol  =         0.00000000
  ---------------------------------------------------
  free energy    TOTEN  =       -70.69428934 eV

  energy without entropy =      -70.69428934  energy(sigma->0) =      -70.69428934


--------------------------------------------------------------------------------------------------------




----------------------------------------- Iteration    1(   9)  ---------------------------------------


    POTLOK:  cpu time    0.0290: real time    0.0296
    SETDIJ:  cpu time    0.0060: real time    0.0059
     EDDAV:  cpu time    4.2893: real time    4.2939
 BZINTS: Fermi energy: -0.773935; 78.000000 electrons
         Band energy:***********;  BLOECHL correction:  0.000000
       DOS:  cpu time    0.0030: real time    0.0030
    CHARGE:  cpu time    0.1600: real time    0.1598
    MIXING:  cpu time    0.0010: real time    0.0010
    --------------------------------------------
      LOOP:  cpu time    4.4883: real time    4.4960

 eigenvalue-minimisations  :  5348
 total energy-change (2. order) :-0.2825984E+00  (-0.3051844E+00)
 number of electron      77.9999996 magnetization 
 augmentation part      -12.5778638 magnetization 

 Broyden mixing:
  rms(total) = 0.92636E+00    rms(broyden)= 0.92635E+00
  rms(prec ) = 0.92666E+00
  weight for this iteration     100.00

 eigenvalues of (default mixing * dielectric matrix)
  average eigenvalue GAMMA=   1.1895
  2.4493  1.2662  0.7786  0.2639

 Free energy of the ion-electron system (eV)
  ---------------------------------------------------
  alpha Z        PSCENC =       130.51048580
  Ewald energy   TEWEN  =     88920.53311768
  -Hartree energ DENC   =    -95077.75480923
  -exchange      EXHF   =         0.00000000
  -V(xc)+E(xc)   XCENC  =       -60.78407059
  PAW double counting   =      9654.52128123    -9269.72898847
  entropy T*S    EENTRO =         0.00000000
  eigenvalues    EBANDS =     -1502.01031076
  atomic energy  EATOM  =      7133.73640661
  Solvation  Ediel_sol  =         0.00000000
  ---------------------------------------------------
  free energy    TOTEN  =       -70.97688774 eV

  energy without entropy =      -70.97688774  energy(sigma->0) =      -70.97688774


--------------------------------------------------------------------------------------------------------




----------------------------------------- Iteration    1(  10)  ---------------------------------------


    POTLOK:  cpu time    0.0300: real time    0.0301
    SETDIJ:  cpu time    0.0060: real time    0.0058
     EDDAV:  cpu time    4.5673: real time    4.5731
 BZINTS: Fermi energy: -0.760618; 78.000000 electrons
         Band energy:***********;  BLOECHL correction:  0.000000
       DOS:  cpu time    0.0030: real time    0.0030
    CHARGE:  cpu time    0.1580: real time    0.1580
    MIXING:  cpu time    0.0010: real time    0.0012
    --------------------------------------------
      LOOP:  cpu time    4.7653: real time    4.7738

 eigenvalue-minimisations  :  5712
 total energy-change (2. order) : 0.1155168E-01  (-0.3956296E-02)
 number of electron      77.9999996 magnetization 
 augmentation part      -12.5840950 magnetization 

 Broyden mixing:
  rms(total) = 0.51188E+00    rms(broyden)= 0.51188E+00
  rms(prec ) = 0.51218E+00
  weight for this iteration     100.00

 eigenvalues of (default mixing * dielectric matrix)
  average eigenvalue GAMMA=   1.3401
  2.6810  1.4807  0.8342  0.8523  0.8523

 Free energy of the ion-electron system (eV)
  ---------------------------------------------------
  alpha Z        PSCENC =       130.51048580
  Ewald energy   TEWEN  =     88920.53311768
  -Hartree energ DENC   =    -95081.46608942
  -exchange      EXHF   =         0.00000000
  -V(xc)+E(xc)   XCENC  =       -60.72794798
  PAW double counting   =      9510.89797135    -9126.02304388
  entropy T*S    EENTRO =         0.00000000
  eigenvalues    EBANDS =     -1498.42623622
  atomic energy  EATOM  =      7133.73640661
  Solvation  Ediel_sol  =         0.00000000
  ---------------------------------------------------
  free energy    TOTEN  =       -70.96533605 eV

  energy without entropy =      -70.96533605  energy(sigma->0) =      -70.96533605


--------------------------------------------------------------------------------------------------------




----------------------------------------- Iteration    1(  11)  ---------------------------------------


    POTLOK:  cpu time    0.0300: real time    0.0294
    SETDIJ:  cpu time    0.0050: real time    0.0059
     EDDAV:  cpu time    4.7393: real time    4.7451
 BZINTS: Fermi energy: -0.497379; 78.000000 electrons
         Band energy:***********;  BLOECHL correction:  0.000000
       DOS:  cpu time    0.0030: real time    0.0034
    CHARGE:  cpu time    0.1550: real time    0.1556
    MIXING:  cpu time    0.0020: real time    0.0011
    --------------------------------------------
      LOOP:  cpu time    4.9362: real time    4.9431

 eigenvalue-minimisations  :  5992
 total energy-change (2. order) : 0.7343958E-02  (-0.6441736E-03)
 number of electron      77.9999996 magnetization 
 augmentation part      -12.5856245 magnetization 

 Broyden mixing:
  rms(total) = 0.28752E+00    rms(broyden)= 0.28752E+00
  rms(prec ) = 0.28783E+00
  weight for this iteration     100.00

 eigenvalues of (default mixing * dielectric matrix)
  average eigenvalue GAMMA=   1.3645
  2.2489  2.2489  1.0902  1.0902  0.7544  0.7544

 Free energy of the ion-electron system (eV)
  ---------------------------------------------------
  alpha Z        PSCENC =       130.51048580
  Ewald energy   TEWEN  =     88920.53311768
  -Hartree energ DENC   =    -95085.94431624
  -exchange      EXHF   =         0.00000000
  -V(xc)+E(xc)   XCENC  =       -60.67757420
  PAW double counting   =      9379.06058538    -8993.95789180
  entropy T*S    EENTRO =         0.00000000
  eigenvalues    EBANDS =     -1494.21880533
  atomic energy  EATOM  =      7133.73640661
  Solvation  Ediel_sol  =         0.00000000
  ---------------------------------------------------
  free energy    TOTEN  =       -70.95799210 eV

  energy without entropy =      -70.95799210  energy(sigma->0) =      -70.95799210


--------------------------------------------------------------------------------------------------------




----------------------------------------- Iteration    1(  12)  ---------------------------------------


    POTLOK:  cpu time    0.0270: real time    0.0279
    SETDIJ:  cpu time    0.0060: real time    0.0058
     EDDAV:  cpu time    4.3973: real time    4.4001
 BZINTS: Fermi energy: -0.418548; 78.000000 electrons
         Band energy:***********;  BLOECHL correction:  0.000000
       DOS:  cpu time    0.0030: real time    0.0034
    CHARGE:  cpu time    0.1560: real time    0.1560
    MIXING:  cpu time    0.0020: real time    0.0011
    --------------------------------------------
      LOOP:  cpu time    4.5913: real time    4.5970

 eigenvalue-minimisations  :  5964
 total energy-change (2. order) : 0.8640485E-02  (-0.3860359E-02)
 number of electron      77.9999996 magnetization 
 augmentation part      -12.6003618 magnetization 

 Broyden mixing:
  rms(total) = 0.10535E+00    rms(broyden)= 0.10535E+00
  rms(prec ) = 0.10538E+00
  weight for this iteration     100.00

 eigenvalues of (default mixing * dielectric matrix)
  average eigenvalue GAMMA=   1.3043
  2.5077  2.4005  1.1478  0.8743  0.8743  0.6628  0.6628

 Free energy of the ion-electron system (eV)
  ---------------------------------------------------
  alpha Z        PSCENC =       130.51048580
  Ewald energy   TEWEN  =     88920.53311768
  -Hartree energ DENC   =    -95094.71847752
  -exchange      EXHF   =         0.00000000
  -V(xc)+E(xc)   XCENC  =       -60.60076952
  PAW double counting   =      9230.18036153    -8844.79595269
  entropy T*S    EENTRO =         0.00000000
  eigenvalues    EBANDS =     -1485.79452350
  atomic energy  EATOM  =      7133.73640661
  Solvation  Ediel_sol  =         0.00000000
  ---------------------------------------------------
  free energy    TOTEN  =       -70.94935161 eV

  energy without entropy =      -70.94935161  energy(sigma->0) =      -70.94935161


--------------------------------------------------------------------------------------------------------




----------------------------------------- Iteration    1(  13)  ---------------------------------------


    POTLOK:  cpu time    0.0270: real time    0.0278
    SETDIJ:  cpu time    0.0060: real time    0.0058
     EDDAV:  cpu time    4.8103: real time    4.8233
 BZINTS: Fermi energy: -0.399781; 78.000000 electrons
         Band energy:***********;  BLOECHL correction:  0.000000
       DOS:  cpu time    0.0040: real time    0.0034
    CHARGE:  cpu time    0.1560: real time    0.1564
    MIXING:  cpu time    0.0010: real time    0.0012
    --------------------------------------------
      LOOP:  cpu time    5.0052: real time    5.0206

 eigenvalue-minimisations  :  6076
 total energy-change (2. order) :-0.1710753E-04  (-0.3385536E-03)
 number of electron      77.9999996 magnetization 
 augmentation part      -12.6025642 magnetization 

 Broyden mixing:
  rms(total) = 0.35656E-01    rms(broyden)= 0.35655E-01
  rms(prec ) = 0.35699E-01
  weight for this iteration     100.00

 eigenvalues of (default mixing * dielectric matrix)
  average eigenvalue GAMMA=   1.3612
  2.6351  2.6351  1.1600  1.1600  1.1588  0.7462  0.7462  0.6483

 Free energy of the ion-electron system (eV)
  ---------------------------------------------------
  alpha Z        PSCENC =       130.51048580
  Ewald energy   TEWEN  =     88920.53311768
  -Hartree energ DENC   =    -95096.46840812
  -exchange      EXHF   =         0.00000000
  -V(xc)+E(xc)   XCENC  =       -60.58778956
  PAW double counting   =      9193.82778052    -8808.41567274
  entropy T*S    EENTRO =         0.00000000
  eigenvalues    EBANDS =     -1484.08528890
  atomic energy  EATOM  =      7133.73640661
  Solvation  Ediel_sol  =         0.00000000
  ---------------------------------------------------
  free energy    TOTEN  =       -70.94936872 eV

  energy without entropy =      -70.94936872  energy(sigma->0) =      -70.94936872


--------------------------------------------------------------------------------------------------------




----------------------------------------- Iteration    1(  14)  ---------------------------------------


    POTLOK:  cpu time    0.0290: real time    0.0301
    SETDIJ:  cpu time    0.0060: real time    0.0058
     EDDAV:  cpu time    4.7863: real time    4.7906
 BZINTS: Fermi energy: -0.382499; 78.000000 electrons
         Band energy:***********;  BLOECHL correction:  0.000000
       DOS:  cpu time    0.0030: real time    0.0034
    CHARGE:  cpu time    0.1640: real time    0.1639
    MIXING:  cpu time    0.0010: real time    0.0012
    --------------------------------------------
      LOOP:  cpu time    4.9902: real time    4.9991

 eigenvalue-minimisations  :  6076
 total energy-change (2. order) : 0.1033551E-03  (-0.1492966E-04)
 number of electron      77.9999996 magnetization 
 augmentation part      -12.6017859 magnetization 

 Broyden mixing:
  rms(total) = 0.10678E-01    rms(broyden)= 0.10678E-01
  rms(prec ) = 0.10764E-01
  weight for this iteration     100.00

 eigenvalues of (default mixing * dielectric matrix)
  average eigenvalue GAMMA=   1.4024
[...]
    --------------------------------------------
      LOOP:  cpu time    4.3323: real time    4.3416

 Broyden mixing:
  rms(total) = 0.51182E-05    rms(broyden)= 0.51171E-05
  rms(prec ) = 0.67466E-05
  weight for this iteration     100.00

 eigenvalues of (default mixing * dielectric matrix)
  average eigenvalue GAMMA=   2.2635
  7.8040  6.9116  3.8490  3.8490  2.5774  2.5774  1.8040  1.8040  1.6356  1.0929
  0.9247  0.9247  0.9643  0.9643  0.9307  0.7981  0.6679  0.6639

 Free energy of the ion-electron system (eV)
  ---------------------------------------------------
  -Hartree energ DENC   =        -0.54157164
  -V(xc)+E(xc)   XCENC  =         0.00879396
  PAW double counting   =         0.02086906       -0.02071622
  entropy T*S    EENTRO =         0.00000000
  eigenvalues    EBANDS =        -0.14605114
  ---------------------------------------------------
  free energy    TOTEN  =        -0.67867597 eV

  energy without entropy =       -0.67867597


----------------------------------------- Iteration    3(  21)  ---------------------------------------


   POT+DIJ:  cpu time    0.0710: real time    0.0723
    HAMIL1:  cpu time    0.7239: real time    0.7243
    LRDIAG:  cpu time    0.1250: real time    0.1252
    LRDIIS:  cpu time    2.6706: real time    2.6731
    LRDIAG:  cpu time    0.1190: real time    0.1201
    MIXING:  cpu time    0.0020: real time    0.0018
    --------------------------------------------
      LOOP:  cpu time    4.1254: real time    4.1318

 Broyden mixing:
  rms(total) = 0.36021E-05    rms(broyden)= 0.36019E-05
  rms(prec ) = 0.44298E-05
  weight for this iteration     100.00

 eigenvalues of (default mixing * dielectric matrix)
  average eigenvalue GAMMA=   2.3229
  7.4966  7.4966  4.1412  4.1412  2.7927  2.7927  2.0682  2.0682  1.6197  1.6197
  1.0623  0.9277  0.9277  0.7980  1.0012  0.9212  0.9212  0.6679  0.6712

 Free energy of the ion-electron system (eV)
  ---------------------------------------------------
  -Hartree energ DENC   =        -0.54157339
  -V(xc)+E(xc)   XCENC  =         0.00879375
  PAW double counting   =         0.02086799       -0.02071514
  entropy T*S    EENTRO =         0.00000000
  eigenvalues    EBANDS =        -0.14606712
  ---------------------------------------------------
  free energy    TOTEN  =        -0.67869391 eV

  energy without entropy =       -0.67869391


----------------------------------------- Iteration    3(  22)  ---------------------------------------


   POT+DIJ:  cpu time    0.0710: real time    0.0717
    HAMIL1:  cpu time    0.7239: real time    0.7254
    LRDIAG:  cpu time    0.1260: real time    0.1262
    LRDIIS:  cpu time    2.5726: real time    2.5755
    LRDIAG:  cpu time    0.1200: real time    0.1201
    MIXING:  cpu time    0.0020: real time    0.0017
    --------------------------------------------
      LOOP:  cpu time    4.0244: real time    4.0326

 Broyden mixing:
  rms(total) = 0.17860E-05    rms(broyden)= 0.17859E-05
  rms(prec ) = 0.21100E-05
  weight for this iteration     100.00

 eigenvalues of (default mixing * dielectric matrix)
  average eigenvalue GAMMA=   2.3150
  7.6942  7.6942  4.3666  4.3666  2.8782  2.8782  2.1385  2.1385  1.6060  1.6060
  1.1008  0.7981  0.9775  0.9775  0.9289  0.9289  0.9740  0.9070  0.6679  0.6719

 Free energy of the ion-electron system (eV)
  ---------------------------------------------------
  -Hartree energ DENC   =        -0.54157577
  -V(xc)+E(xc)   XCENC  =         0.00879328
  PAW double counting   =         0.02086861       -0.02071576
  entropy T*S    EENTRO =         0.00000000
  eigenvalues    EBANDS =        -0.14607151
  ---------------------------------------------------
  free energy    TOTEN  =        -0.67870115 eV

  energy without entropy =       -0.67870115


----------------------------------------- Iteration    3(  23)  ---------------------------------------


   POT+DIJ:  cpu time    0.0710: real time    0.0713
    HAMIL1:  cpu time    0.7239: real time    0.7252
    LRDIAG:  cpu time    0.1250: real time    0.1258
    LRDIIS:  cpu time    2.1537: real time    2.1567
    LRDIAG:  cpu time    0.1220: real time    0.1212
    MIXING:  cpu time    0.0020: real time    0.0018
    --------------------------------------------
      LOOP:  cpu time    3.6065: real time    3.6132

 Broyden mixing:
  rms(total) = 0.12043E-05    rms(broyden)= 0.12043E-05
  rms(prec ) = 0.13859E-05
  weight for this iteration     100.00

 eigenvalues of (default mixing * dielectric matrix)
  average eigenvalue GAMMA=   2.4128
  8.1308  8.1308  5.3299  4.3577  3.0761  3.0761  2.2917  2.2917  1.7500  1.7500
  1.6485  1.0918  0.7980  0.9271  0.9271  0.9340  0.9340  0.9629  0.9203  0.6679
  0.6721

 Free energy of the ion-electron system (eV)
  ---------------------------------------------------
  -Hartree energ DENC   =        -0.54157518
  -V(xc)+E(xc)   XCENC  =         0.00879314
  PAW double counting   =         0.02086899       -0.02071612
  entropy T*S    EENTRO =         0.00000000
  eigenvalues    EBANDS =        -0.14607875
  ---------------------------------------------------
  free energy    TOTEN  =        -0.67870792 eV

  energy without entropy =       -0.67870792


----------------------------------------- Iteration    3(  24)  ---------------------------------------


   POT+DIJ:  cpu time    0.0700: real time    0.0713
    HAMIL1:  cpu time    0.7249: real time    0.7259
    LRDIAG:  cpu time    0.1260: real time    0.1254
    LRDIIS:  cpu time    2.3596: real time    2.3626
    LRDIAG:  cpu time    0.1200: real time    0.1199
    MIXING:  cpu time    0.0020: real time    0.0018
    --------------------------------------------
      LOOP:  cpu time    3.8074: real time    3.8153

 Broyden mixing:
  rms(total) = 0.61575E-06    rms(broyden)= 0.61568E-06
  rms(prec ) = 0.66408E-06
  weight for this iteration     100.00

 eigenvalues of (default mixing * dielectric matrix)
  average eigenvalue GAMMA=   2.3983
  8.3921  8.3921  5.6942  4.3685  3.0791  3.0791  2.3162  2.3162  1.9407  1.6334
  1.6334  1.1839  1.0266  1.0266  0.9284  0.9284  0.9341  0.7981  0.8760  0.8760
  0.6679  0.6723

 Free energy of the ion-electron system (eV)
  ---------------------------------------------------
  -Hartree energ DENC   =        -0.54157576
  -V(xc)+E(xc)   XCENC  =         0.00879305
  PAW double counting   =         0.02086847       -0.02071558
  entropy T*S    EENTRO =         0.00000000
  eigenvalues    EBANDS =        -0.14607434
  ---------------------------------------------------
  free energy    TOTEN  =        -0.67870416 eV

  energy without entropy =       -0.67870416


------------------------ aborting loop because EDIFF is reached ----------------------------------------


 change of polarisation eV/A/(eV/A) component  3 :     0.000    -0.000     1.335
 dielectric tensor                  component  3 :     0.000    -0.000     1.506


--------------------------------------------------------------------------------------------------------


    FORLOC:  cpu time    0.0030: real time    0.0022
    FORNL :  cpu time    0.6399: real time    0.6406
    STRESS:  cpu time    2.8696: real time    2.8705
    FORCOR:  cpu time    0.0280: real time    0.0284
    OFIELD:  cpu time    0.0010: real time    0.0002

  Hirshfeld charges:
            ion         q(e)     
   ------------------------------
      1     W           0.285
      2     W           0.284
      3     W           0.285
      4     Se         -0.142
      5     Se         -0.143
      6     Se         -0.142
      7     Se         -0.142
      8     Se         -0.143
      9     Se         -0.142

  Tkatchenko/Scheffler method for vdW energy calculation
  ---------------------------------------------------------------------------------------------

  Parameters of vdW forcefield:
            C6ts              R0ts           ALPHAts        RELVOL
            (au)              (au)            (au)                
   ---------------------------------------------------------------
   W         896.457          4.120         73.045          1.028
   W         902.595          4.125         73.295          1.032
   W         896.458          4.120         73.045          1.028
   Se        213.931          4.057         25.233          1.009
   Se        209.413          4.042         24.965          0.999
   Se        213.926          4.057         25.233          1.009
   Se        213.925          4.057         25.232          1.009
   Se        209.414          4.042         24.965          0.999
   Se        213.930          4.057         25.233          1.009
  Edisp (eV):   -2.43853
    FORVDW:  cpu time    0.2540: real time    0.2559
    FORLOC:  cpu time    0.0030: real time    0.0022
    FORNL :  cpu time    0.6409: real time    0.6409
    STRESS:  cpu time    2.8656: real time    2.8669
    FORCOR:  cpu time    0.0280: real time    0.0284
    OFIELD:  cpu time    0.0000: real time    0.0002

  Hirshfeld charges:
            ion         q(e)     
   ------------------------------
      1     W           0.285
      2     W           0.284
      3     W           0.285
      4     Se         -0.142
      5     Se         -0.143
      6     Se         -0.142
      7     Se         -0.142
      8     Se         -0.143
      9     Se         -0.142

  Tkatchenko/Scheffler method for vdW energy calculation
  ---------------------------------------------------------------------------------------------

  Parameters of vdW forcefield:
            C6ts              R0ts           ALPHAts        RELVOL
            (au)              (au)            (au)                
   ---------------------------------------------------------------
   W         896.458          4.120         73.045          1.028
   W         902.595          4.125         73.295          1.032
   W         896.457          4.120         73.045          1.028
   Se        213.930          4.057         25.233          1.009
   Se        209.414          4.042         24.965          0.999
   Se        213.925          4.057         25.232          1.009
   Se        213.926          4.057         25.233          1.009
   Se        209.413          4.042         24.965          0.999
   Se        213.931          4.057         25.233          1.009
  Edisp (eV):   -2.43853
    FORVDW:  cpu time    0.2550: real time    0.2562
    FORNLD:  cpu time    1.9257: real time    1.9273

 PIEZOELECTRIC TENSOR FIELD DIRECTION 3  (e Angst)
 -----------------------------------------------------------------------------
    -0.00003  0.00000 -0.00000           (  0.00000  0.00000  0.00000)
    -0.00000 -0.00003 -0.00000           ( -0.00000  0.00000  0.00000)
     0.00000  0.00000  0.00005           (  0.00000  0.00000  0.00000)

 PIEZOELECTRIC TENSOR FIELD DIRECTION 3  (C/m^2)
 -----------------------------------------------------------------------------
    -0.00000  0.00000 -0.00000
    -0.00000 -0.00000 -0.00000
     0.00000  0.00000  0.00000


      POSITION         DIRECTION 3           BORN EFFECTIVE CHARGE    (rigid.aug.   ionic)
 -----------------------------------------------------------------------------------------
     -0.00000      0.95811     18.51000    -0.00000  0.00000-15.50942 (  1.95585 14.00000)
      1.65950      1.91623     25.00000     0.00000 -0.00000 -0.65742 (  1.95582 14.00000)
     -0.00000      0.95811     31.49000     0.00000  0.00000-15.50942 (  1.95585 14.00000)
      1.65950      1.91623     20.18928     0.00000 -0.00000 -0.01816 (  1.12261  6.00000)
      1.65950      1.91623     16.83072    -0.00000  0.00000  0.52614 (  1.12106  6.00000)
     -0.00000      0.95811     26.67928     0.00000 -0.00000  0.13238 (  1.12265  6.00000)
     -0.00000      0.95811     23.32072     0.00000  0.00000  0.13238 (  1.12265  6.00000)
      1.65950      1.91623     33.16928     0.00000 -0.00000  0.52614 (  1.12106  6.00000)
      1.65950      1.91623     29.81072    -0.00000 -0.00000 -0.01816 (  1.12261  6.00000)
 -----------------------------------------------------------------------------------------
    total drift (improves with k-points):   0.00000 -0.00000-30.39553




--------------------------------------------------------------------------------------------------------


  LATTYP: Found a hexagonal cell.
 ALAT       =     3.3190066245
 C/A-ratio  =    15.0647484797
  
  Lattice vectors:
  
 A1 = (   3.3190066245,   0.0000000000,   0.0000000000)
 A2 = (  -1.6595033122,   2.8743440521,   0.0000000000)
 A3 = (   0.0000000000,   0.0000000000,  50.0000000000)


Analysis of symmetry for initial positions (statically):
=====================================================================
 Subroutine PRICEL returns:
 Original cell was already a primitive cell.
 

 Routine SETGRP: Setting up the symmetry group for a 
 hexagonal supercell.


 Subroutine GETGRP returns: Found 12 space group operations
 (whereof  4 operations were pure point group operations)
 out of a pool of 24 trial point group operations.


The static configuration has the point symmetry C_2v.
 The point group associated with its full space group is D_3h.


Analysis of symmetry for dynamics (positions and initial velocities):
=====================================================================
 Subroutine PRICEL returns:
 Original cell was already a primitive cell.
 

 Routine SETGRP: Setting up the symmetry group for a 
 hexagonal supercell.


 Subroutine GETGRP returns: Found 12 space group operations
 (whereof  4 operations were pure point group operations)
 out of a pool of 24 trial point group operations.


The dynamic configuration has the point symmetry C_2v.
 The point group associated with its full space group is D_3h.


 Subroutine INISYM returns: Found 12 space group operations
 (whereof  4 operations are pure point group operations),
 and found     1 'primitive' translations



 MACROSCOPIC STATIC DIELECTRIC TENSOR (including local field effects in DFT)
 ------------------------------------------------------
           6.586868     0.000000    -0.000000
          -0.000000     6.586868     0.000000
           0.000000    -0.000000     1.506299
 ------------------------------------------------------



--------------------------------------------------------------------------------------------------------


  LATTYP: Found a hexagonal cell.
 ALAT       =     3.3190066245
 C/A-ratio  =    15.0647484797
  
  Lattice vectors:
  
 A1 = (   3.3190066245,   0.0000000000,   0.0000000000)
 A2 = (  -1.6595033122,   2.8743440521,   0.0000000000)
 A3 = (   0.0000000000,   0.0000000000,  50.0000000000)


Analysis of symmetry for initial positions (statically):
=====================================================================
 Subroutine PRICEL returns:
 Original cell was already a primitive cell.
 

 Routine SETGRP: Setting up the symmetry group for a 
 hexagonal supercell.


 Subroutine GETGRP returns: Found 12 space group operations
 (whereof  4 operations were pure point group operations)
 out of a pool of 24 trial point group operations.


The static configuration has the point symmetry C_2v.
 The point group associated with its full space group is D_3h.


Analysis of symmetry for dynamics (positions and initial velocities):
=====================================================================
 Subroutine PRICEL returns:
 Original cell was already a primitive cell.
 

 Routine SETGRP: Setting up the symmetry group for a 
 hexagonal supercell.


 Subroutine GETGRP returns: Found 12 space group operations
 (whereof  4 operations were pure point group operations)
 out of a pool of 24 trial point group operations.


The dynamic configuration has the point symmetry C_2v.
 The point group associated with its full space group is D_3h.


 Subroutine INISYM returns: Found 12 space group operations
 (whereof  4 operations are pure point group operations),
 and found     1 'primitive' translations



--------------------------------------------------------------------------------------------------------




 MACROSCOPIC STATIC DIELECTRIC TENSOR (including local field effects in DFT)
 ------------------------------------------------------
           6.586868     0.000000    -0.000000
          -0.000000     6.586868     0.000000
           0.000000    -0.000000     1.506299
 ------------------------------------------------------


 PIEZOELECTRIC TENSOR  for field in x, y, z        (e  Angst)
          XX          YY          ZZ          XY          YZ          ZX
  --------------------------------------------------------------------------------
  x    -0.00809     0.00663    -0.00038    -0.97518     0.00000     0.00000
  y    -0.98311     0.98638     0.00149     0.00000     0.00000     0.00000
  z    -0.00003    -0.00003     0.00005    -0.00000     0.00000    -0.00000

 PIEZOELECTRIC TENSOR  for field in x, y, z        (C/m^2)
          XX          YY          ZZ          XY          YZ          ZX
  --------------------------------------------------------------------------------
  x     0.00000     0.00000    -0.00000    -0.03292     0.00000     0.00000
  y    -0.03292     0.03292    -0.00000     0.00000     0.00000     0.00000
  z     0.00000     0.00000     0.00000    -0.00000     0.00000     0.00000
 
 BORN EFFECTIVE CHARGES (in e, cummulative output)
 -------------------------------------------------
 ion    1
    1    -1.12580    -0.00069    -0.00000
    2     0.00000    -1.12654    -0.00002
    3    -0.00000     0.00000   -15.50942
 ion    2
    1    -1.13415     0.00073     0.00000
    2     0.00000    -1.13349     0.00000
    3     0.00000    -0.00000    -0.65742
 ion    3
    1    -1.12580    -0.00069     0.00000
    2     0.00000    -1.12654     0.00002
    3     0.00000     0.00000   -15.50942
 ion    4
    1     0.58429    -0.00032    -0.00024
    2    -0.00000     0.58468     0.00062
    3     0.00000    -0.00000    -0.01816
 ion    5
    1     0.59220    -0.00034     0.00015
    2    -0.00000     0.59254    -0.00041
    3    -0.00000     0.00000     0.52614
 ion    6
    1     0.59213     0.00033    -0.00024
    2    -0.00000     0.59175     0.00061
    3     0.00000    -0.00000     0.13238
 ion    7
    1     0.59213     0.00033     0.00024
    2    -0.00000     0.59175    -0.00061
    3     0.00000     0.00000     0.13238
 ion    8
    1     0.59220    -0.00034    -0.00015
    2    -0.00000     0.59254     0.00041
    3     0.00000    -0.00000     0.52614
 ion    9
    1     0.58429    -0.00032     0.00024
    2    -0.00000     0.58468    -0.00062
    3    -0.00000    -0.00000    -0.01816


--------------------------------------------------------------------------------------------------------


 writing wavefunctions
     LOOP+:  cpu time 1032.0481: real time 1034.9492
    4ORBIT:  cpu time    0.0000: real time    0.0000
 BZINTS: Fermi energy: -0.308491; 78.000000 electrons
         Band energy:***********;  BLOECHL correction:  0.000000

 total amount of memory used by VASP on root node   143247. kBytes
========================================================================

   base      :      30000. kBytes
   nonl-proj :      96136. kBytes
   fftplans  :       1943. kBytes
   grid      :       7351. kBytes
   one-center:        292. kBytes
   wavefun   :       7525. kBytes
 
  
  
 General timing and accounting informations for this job:
 ========================================================
  
                  Total CPU time used (sec):     1034.433
                            User time (sec):     1009.797
                          System time (sec):       24.635
                         Elapsed time (sec):     1038.658
  
                   Maximum memory used (kb):      673568.
                   Average memory used (kb):           0.
  
                          Minor page faults:      5922083
                          Major page faults:           10
                 Voluntary context switches:         5005
