   3   3   0   0
  0.1465063E+03  0.3185946E-09  0.3185946E-09  0.5000000E-08  0.5000000E-15
  1.000000000000000E-004
  CAR 
 unknown system                          
     12.38009632    -82.52712415  301     -3.99139921      1.00000000
    -82.527  0.0000E+00  0.0000E+00
    -82.211  0.0000E+00  0.0000E+00
    -81.894  0.0000E+00  0.0000E+00
    -81.578  0.0000E+00  0.0000E+00
    -81.262  0.0000E+00  0.0000E+00
    -80.945  0.0000E+00  0.0000E+00
    -80.629  0.0000E+00  0.0000E+00
    -80.313  0.0000E+00  0.0000E+00
    -79.996  0.0000E+00  0.0000E+00
    -79.680  0.0000E+00  0.0000E+00
    -79.364  0.0000E+00  0.0000E+00
    -79.047  0.0000E+00  0.0000E+00
    -78.731  0.0000E+00  0.0000E+00
    -78.414  0.0000E+00  0.0000E+00
    -78.098  0.0000E+00  0.2000E+01
    -77.782  0.0000E+00  0.2000E+01
    -77.465  0.0000E+00  0.2000E+01
    -77.149  0.0000E+00  0.2000E+01
    -76.833  0.0000E+00  0.2000E+01
    -76.516  0.0000E+00  0.2000E+01
    -76.200  0.0000E+00  0.2000E+01
    -75.884  0.0000E+00  0.2000E+01
    -75.567  0.0000E+00  0.2000E+01
    -75.251  0.0000E+00  0.2000E+01
    -74.935  0.0000E+00  0.2000E+01
    -74.618  0.0000E+00  0.2000E+01
    -74.302  0.0000E+00  0.2000E+01
    -73.985  0.0000E+00  0.2000E+01
    -73.669  0.0000E+00  0.2000E+01
    -73.353  0.0000E+00  0.2000E+01
    -73.036  0.0000E+00  0.2000E+01
    -72.720  0.0000E+00  0.2000E+01
    -72.404  0.0000E+00  0.2000E+01
    -72.087  0.0000E+00  0.2000E+01
    -71.771  0.0000E+00  0.2000E+01
    -71.455  0.0000E+00  0.2000E+01
    -71.138  0.0000E+00  0.2000E+01
    -70.822  0.0000E+00  0.2000E+01
    -70.506  0.0000E+00  0.2000E+01
    -70.189  0.0000E+00  0.2000E+01
    -69.873  0.0000E+00  0.2000E+01
    -69.556  0.0000E+00  0.2000E+01
    -69.240  0.0000E+00  0.2000E+01
    -68.924  0.0000E+00  0.2000E+01
    -68.607  0.0000E+00  0.2000E+01
    -68.291  0.0000E+00  0.2000E+01
    -67.975  0.0000E+00  0.2000E+01
    -67.658  0.0000E+00  0.2000E+01
    -67.342  0.0000E+00  0.2000E+01
    -67.026  0.0000E+00  0.2000E+01
    -66.709  0.0000E+00  0.2000E+01
    -66.393  0.0000E+00  0.2000E+01
    -66.077  0.0000E+00  0.2000E+01
    -65.760  0.0000E+00  0.2000E+01
    -65.444  0.0000E+00  0.2000E+01
    -65.127  0.0000E+00  0.2000E+01
    -64.811  0.0000E+00  0.2000E+01
    -64.495  0.0000E+00  0.2000E+01
    -64.178  0.0000E+00  0.2000E+01
    -63.862  0.0000E+00  0.2000E+01
    -63.546  0.0000E+00  0.2000E+01
    -63.229  0.0000E+00  0.2000E+01
    -62.913  0.0000E+00  0.2000E+01
    -62.597  0.0000E+00  0.2000E+01
    -62.280  0.0000E+00  0.2000E+01
    -61.964  0.0000E+00  0.2000E+01
    -61.648  0.0000E+00  0.2000E+01
    -61.331  0.0000E+00  0.2000E+01
    -61.015  0.0000E+00  0.2000E+01
    -60.698  0.0000E+00  0.2000E+01
    -60.382  0.0000E+00  0.2000E+01
    -60.066  0.0000E+00  0.2000E+01
    -59.749  0.0000E+00  0.2000E+01
    -59.433  0.0000E+00  0.2000E+01
    -59.117  0.0000E+00  0.2000E+01
    -58.800  0.0000E+00  0.2000E+01
    -58.484  0.0000E+00  0.2000E+01
    -58.168  0.0000E+00  0.2000E+01
    -57.851  0.0000E+00  0.2000E+01
    -57.535  0.0000E+00  0.2000E+01
    -57.219  0.0000E+00  0.2000E+01
    -56.902  0.0000E+00  0.2000E+01
    -56.586  0.0000E+00  0.2000E+01
    -56.269  0.0000E+00  0.2000E+01
    -55.953  0.0000E+00  0.2000E+01
    -55.637  0.0000E+00  0.2000E+01
    -55.320  0.0000E+00  0.2000E+01
    -55.004  0.0000E+00  0.2000E+01
    -54.688  0.0000E+00  0.2000E+01
    -54.371  0.0000E+00  0.2000E+01
    -54.055  0.0000E+00  0.2000E+01
    -53.739  0.0000E+00  0.2000E+01
    -53.422  0.0000E+00  0.2000E+01
    -53.106  0.0000E+00  0.2000E+01
    -52.790  0.0000E+00  0.2000E+01
    -52.473  0.0000E+00  0.2000E+01
    -52.157  0.0000E+00  0.2000E+01
    -51.840  0.0000E+00  0.2000E+01
    -51.524  0.0000E+00  0.2000E+01
    -51.208  0.0000E+00  0.2000E+01
    -50.891  0.0000E+00  0.2000E+01
    -50.575  0.0000E+00  0.2000E+01
    -50.259  0.0000E+00  0.2000E+01
    -49.942  0.0000E+00  0.2000E+01
    -49.626  0.0000E+00  0.2000E+01
    -49.310  0.0000E+00  0.2000E+01
    -48.993  0.0000E+00  0.2000E+01
    -48.677  0.0000E+00  0.2000E+01
    -48.361  0.0000E+00  0.2000E+01
    -48.044  0.0000E+00  0.2000E+01
    -47.728  0.0000E+00  0.2000E+01
    -47.411  0.0000E+00  0.2000E+01
    -47.095  0.0000E+00  0.2000E+01
    -46.779  0.0000E+00  0.2000E+01
    -46.462  0.0000E+00  0.2000E+01
    -46.146  0.0000E+00  0.2000E+01
    -45.830  0.0000E+00  0.2000E+01
    -45.513  0.0000E+00  0.2000E+01
    -45.197  0.0000E+00  0.2000E+01
    -44.881  0.0000E+00  0.2000E+01
    -44.564  0.0000E+00  0.2000E+01
    -44.248  0.0000E+00  0.2000E+01
    -43.932  0.0000E+00  0.2000E+01
    -43.615  0.0000E+00  0.2000E+01
    -43.299  0.0000E+00  0.2000E+01
    -42.982  0.0000E+00  0.2000E+01
    -42.666  0.0000E+00  0.2000E+01
    -42.350  0.1833E+02  0.7138E+01
    -42.033  0.0000E+00  0.8000E+01
    -41.717  0.0000E+00  0.8000E+01
    -41.401  0.0000E+00  0.8000E+01
    -41.084  0.0000E+00  0.8000E+01
    -40.768  0.0000E+00  0.8000E+01
    -40.452  0.0000E+00  0.8000E+01
    -40.135  0.0000E+00  0.8000E+01
    -39.819  0.0000E+00  0.8000E+01
    -39.503  0.0000E+00  0.8000E+01
    -39.186  0.0000E+00  0.8000E+01
    -38.870  0.0000E+00  0.8000E+01
    -38.553  0.0000E+00  0.8000E+01
    -38.237  0.0000E+00  0.8000E+01
    -37.921  0.0000E+00  0.8000E+01
    -37.604  0.0000E+00  0.8000E+01
    -37.288  0.0000E+00  0.8000E+01
    -36.972  0.0000E+00  0.8000E+01
    -36.655  0.0000E+00  0.8000E+01
    -36.339  0.0000E+00  0.8000E+01
    -36.023  0.0000E+00  0.8000E+01
    -35.706  0.0000E+00  0.8000E+01
    -35.390  0.0000E+00  0.8000E+01
    -35.074  0.0000E+00  0.8000E+01
    -34.757  0.0000E+00  0.8000E+01
    -34.441  0.0000E+00  0.8000E+01
    -34.124  0.0000E+00  0.8000E+01
    -33.808  0.0000E+00  0.8000E+01
    -33.492  0.0000E+00  0.8000E+01
    -33.175  0.0000E+00  0.8000E+01
    -32.859  0.0000E+00  0.8000E+01
    -32.543  0.0000E+00  0.8000E+01
    -32.226  0.0000E+00  0.8000E+01
    -31.910  0.0000E+00  0.8000E+01
    -31.594  0.0000E+00  0.8000E+01
    -31.277  0.0000E+00  0.8000E+01
    -30.961  0.0000E+00  0.8000E+01
    -30.645  0.0000E+00  0.8000E+01
    -30.328  0.0000E+00  0.8000E+01
    -30.012  0.0000E+00  0.8000E+01
    -29.695  0.0000E+00  0.8000E+01
    -29.379  0.0000E+00  0.8000E+01
    -29.063  0.0000E+00  0.8000E+01
    -28.746  0.0000E+00  0.8000E+01
    -28.430  0.0000E+00  0.8000E+01
    -28.114  0.0000E+00  0.8000E+01
    -27.797  0.0000E+00  0.8000E+01
    -27.481  0.0000E+00  0.8000E+01
    -27.165  0.0000E+00  0.8000E+01
    -26.848  0.0000E+00  0.8000E+01
    -26.532  0.0000E+00  0.8000E+01
    -26.216  0.0000E+00  0.8000E+01
    -25.899  0.0000E+00  0.8000E+01
    -25.583  0.0000E+00  0.8000E+01
    -25.266  0.0000E+00  0.8000E+01
    -24.950  0.0000E+00  0.8000E+01
    -24.634  0.0000E+00  0.8000E+01
    -24.317  0.0000E+00  0.8000E+01
    -24.001  0.0000E+00  0.8000E+01
    -23.685  0.0000E+00  0.8000E+01
    -23.368  0.0000E+00  0.8000E+01
    -23.052  0.0000E+00  0.8000E+01
    -22.736  0.0000E+00  0.8000E+01
    -22.419  0.0000E+00  0.8000E+01
    -22.103  0.0000E+00  0.8000E+01
    -21.787  0.0000E+00  0.8000E+01
    -21.470  0.0000E+00  0.8000E+01
    -21.154  0.0000E+00  0.8000E+01
    -20.837  0.0000E+00  0.8000E+01
    -20.521  0.0000E+00  0.8000E+01
    -20.205  0.0000E+00  0.8000E+01
    -19.888  0.0000E+00  0.8000E+01
    -19.572  0.0000E+00  0.8000E+01
    -19.256  0.0000E+00  0.8000E+01
    -18.939  0.0000E+00  0.8000E+01
    -18.623  0.4636E+00  0.8112E+01
    -18.307  0.5194E+00  0.8267E+01
    -17.990  0.5647E+00  0.8436E+01
    -17.674  0.6471E+00  0.8626E+01
    -17.357  0.7833E+00  0.8849E+01
    -17.041  0.2496E+01  0.9419E+01
    -16.725  0.3753E+01  0.1049E+02
    -16.408  0.2780E+01  0.1188E+02
    -16.092  0.0000E+00  0.1200E+02
    -15.776  0.0000E+00  0.1200E+02
    -15.459  0.0000E+00  0.1200E+02
    -15.143  0.0000E+00  0.1200E+02
    -14.827  0.0000E+00  0.1200E+02
    -14.510  0.0000E+00  0.1200E+02
    -14.194  0.0000E+00  0.1200E+02
    -13.878  0.0000E+00  0.1200E+02
    -13.561  0.0000E+00  0.1200E+02
    -13.245  0.0000E+00  0.1200E+02
    -12.928  0.0000E+00  0.1200E+02
    -12.612  0.0000E+00  0.1200E+02
    -12.296  0.0000E+00  0.1200E+02
    -11.979  0.0000E+00  0.1200E+02
    -11.663  0.0000E+00  0.1200E+02
    -11.347  0.0000E+00  0.1200E+02
    -11.030  0.0000E+00  0.1200E+02
    -10.714  0.0000E+00  0.1200E+02
    -10.398  0.1300E+01  0.1219E+02
    -10.081  0.1669E+01  0.1265E+02
     -9.765  0.1729E+01  0.1344E+02
     -9.449  0.1328E+01  0.1432E+02
     -9.132  0.1144E+01  0.1476E+02
     -8.816  0.7741E+00  0.1504E+02
     -8.499  0.6164E+01  0.1610E+02
     -8.183  0.8070E+00  0.1715E+02
     -7.867  0.1067E+01  0.1745E+02
     -7.550  0.5766E+01  0.1847E+02
     -7.234  0.1796E+01  0.1947E+02
     -6.918  0.1776E+01  0.1997E+02
     -6.601  0.1441E+01  0.2056E+02
     -6.285  0.5049E+01  0.2143E+02
     -5.969  0.1847E+01  0.2261E+02
     -5.652  0.2298E+01  0.2339E+02
     -5.336  0.1041E+00  0.2400E+02
     -5.020  0.4192E+01  0.2455E+02
     -4.703  0.1741E+01  0.2535E+02
     -4.387  0.1113E+01  0.2579E+02
     -4.070  0.0000E+00  0.2600E+02
     -3.754  0.0000E+00  0.2600E+02
     -3.438  0.0000E+00  0.2600E+02
     -3.121  0.0000E+00  0.2600E+02
     -2.805  0.0000E+00  0.2600E+02
     -2.489  0.0000E+00  0.2600E+02
     -2.172  0.3886E+00  0.2603E+02
     -1.856  0.3511E+01  0.2674E+02
     -1.540  0.4808E+01  0.2774E+02
     -1.223  0.2866E+01  0.2934E+02
     -0.907  0.3098E+01  0.3026E+02
     -0.591  0.2070E+01  0.3132E+02
     -0.274  0.2020E+01  0.3196E+02
      0.042  0.6520E+00  0.3247E+02
      0.359  0.2309E+01  0.3281E+02
      0.675  0.1182E+01  0.3358E+02
      0.991  0.9784E+00  0.3387E+02
      1.308  0.1173E+01  0.3425E+02
      1.624  0.2131E+01  0.3470E+02
      1.940  0.3092E+01  0.3547E+02
      2.257  0.3726E+01  0.3653E+02
      2.573  0.4029E+01  0.3785E+02
      2.889  0.4038E+01  0.3911E+02
      3.206  0.5521E+01  0.4051E+02
      3.522  0.5699E+01  0.4228E+02
      3.838  0.5367E+01  0.4410E+02
      4.155  0.4543E+01  0.4565E+02
      4.471  0.4353E+01  0.4702E+02
      4.788  0.5011E+01  0.4845E+02
      5.104  0.4102E+01  0.5008E+02
      5.420  0.3204E+01  0.5145E+02
      5.737  0.3517E+01  0.5249E+02
      6.053  0.3307E+01  0.5360E+02
      6.369  0.2832E+01  0.5457E+02
      6.686  0.1311E+01  0.5523E+02
      7.002  0.1094E+01  0.5560E+02
      7.318  0.4430E+00  0.5591E+02
      7.635  0.1126E+00  0.5598E+02
      7.951  0.2977E-01  0.5600E+02
      8.267  0.0000E+00  0.5600E+02
      8.584  0.0000E+00  0.5600E+02
      8.900  0.0000E+00  0.5600E+02
      9.217  0.0000E+00  0.5600E+02
      9.533  0.0000E+00  0.5600E+02
      9.849  0.0000E+00  0.5600E+02
     10.166  0.0000E+00  0.5600E+02
     10.482  0.0000E+00  0.5600E+02
     10.798  0.0000E+00  0.5600E+02
     11.115  0.0000E+00  0.5600E+02
     11.431  0.0000E+00  0.5600E+02
     11.747  0.0000E+00  0.5600E+02
     12.064  0.0000E+00  0.5600E+02
     12.380  0.0000E+00  0.5600E+02
