       N       E                     dE             d eps       ncg     rms          rms(c)
DAV:   1     0.107204985353E+03    0.10720E+03   -0.10810E+04  3444   0.441E+02
DAV:   2    -0.261860213720E+02   -0.13339E+03   -0.13113E+03  3052   0.131E+02
DAV:   3    -0.284702321248E+02   -0.22842E+01   -0.22842E+01  3276   0.224E+01
DAV:   4    -0.284847023548E+02   -0.14470E-01   -0.14470E-01  2940   0.130E+00
DAV:   5    -0.284847709126E+02   -0.68558E-04   -0.68558E-04  3276   0.797E-02    0.769E+01
DAV:   6    -0.259907980473E+02    0.24940E+01   -0.25403E+01  2184   0.126E+01    0.716E+01
DAV:   7    -0.268811912190E+02   -0.89039E+00   -0.20676E+01  3136   0.106E+01    0.273E+01
DAV:   8    -0.256939178312E+02    0.11873E+01   -0.10649E+01  2632   0.748E+00    0.113E+00
DAV:   9    -0.256948894186E+02   -0.97159E-03   -0.19413E-01  2716   0.171E+00    0.207E+00
DAV:  10    -0.256952680649E+02   -0.37865E-03   -0.42485E-03  3304   0.281E-01    0.318E-01
DAV:  11    -0.256944127894E+02    0.85528E-03   -0.50511E-03  3248   0.230E-01    0.328E-01
DAV:  12    -0.256943455102E+02    0.67279E-04   -0.38982E-04  3360   0.630E-02    0.674E-02
DAV:  13    -0.256943217131E+02    0.23797E-04   -0.72264E-05  3220   0.226E-02    0.163E-02
DAV:  14    -0.256943690814E+02   -0.47368E-04   -0.29915E-05  3080   0.119E-02    0.196E-02
DAV:  15    -0.256945120134E+02   -0.14293E-03   -0.37878E-05  2660   0.147E-02    0.401E-02
DAV:  16    -0.256945614335E+02   -0.49420E-04   -0.19794E-06  2800   0.439E-03    0.138E-02
DAV:  17    -0.256946071892E+02   -0.45756E-04   -0.17922E-06  2744   0.349E-03    0.145E-03
DAV:  18    -0.256946251476E+02   -0.17958E-04   -0.31366E-07  2744   0.148E-03    0.361E-03
DAV:  19    -0.256946466488E+02   -0.21501E-04   -0.48989E-07  2688   0.153E-03    0.205E-03
DAV:  20    -0.256946510845E+02   -0.44356E-05   -0.67134E-08  2800   0.659E-04    0.215E-03
DAV:  21    -0.256946551430E+02   -0.40585E-05   -0.71534E-08  2548   0.584E-04    0.691E-04
DAV:  22    -0.256946568631E+02   -0.17202E-05   -0.22011E-08  2800   0.311E-04    0.750E-05
DAV:  23    -0.256946578175E+02   -0.95441E-06   -0.98583E-09  2576   0.245E-04    0.544E-04
DAV:  24    -0.256946582627E+02   -0.44514E-06   -0.16510E-09  2464   0.156E-04    0.182E-04
DAV:  25    -0.256946585025E+02   -0.23982E-06   -0.20958E-10  2492   0.971E-05    0.327E-05
DAV:  26    -0.256946586136E+02   -0.11108E-06   -0.99837E-11  2548   0.651E-05    0.284E-05
DAV:  27    -0.256946586465E+02   -0.32929E-07   -0.55410E-11  2576   0.393E-05    0.197E-05
DAV:  28    -0.256946586518E+02   -0.53110E-08    0.20440E-11  2856   0.116E-05
   1 F= -.26256082E+02 E0= -.26256082E+02  d E =0.000000E+00
 Linear response reoptimize wavefunctions
DAV:   1    -0.256946586546E+02    0.56142E+00    0.37881E-12  2632   0.126E-05
DAV:   2    -0.256946586546E+02    0.00000E+00    0.17771E-11  2884   0.347E-07
 Linear response G [H, r] |phi>, progress :
  Direction:   1
       N       E                     dE             d eps       ncg     rms
RMM:   1    -0.111447431822E+03   -0.11145E+03    0.48622E+02  5205   0.902E+01
RMM:   2    -0.110616171571E+03    0.83126E+00   -0.30563E+01  4695   0.187E+01
RMM:   3    -0.110935899025E+03   -0.31973E+00   -0.12312E+00  4833   0.384E+00
RMM:   4    -0.110949534845E+03   -0.13636E-01   -0.51606E-02  5203   0.631E-01
RMM:   5    -0.110949525648E+03    0.91973E-05   -0.34908E-03  4966   0.159E-01
RMM:   6    -0.110949540315E+03   -0.14668E-04   -0.26753E-04  5113   0.390E-02
RMM:   7    -0.110949538682E+03    0.16334E-05   -0.26320E-05  5032   0.102E-02
RMM:   8    -0.110949538583E+03    0.99163E-07   -0.81278E-06  4973   0.283E-03
RMM:   9    -0.110949538092E+03    0.49071E-06   -0.14706E-06  4710   0.917E-04
RMM:  10    -0.110949538141E+03   -0.48957E-07   -0.17159E-06  4562   0.427E-04
RMM:  11    -0.110949538199E+03   -0.58527E-07   -0.22605E-06  4193   0.289E-04
RMM:  12    -0.110949538014E+03    0.18582E-06   -0.38833E-07  3863   0.255E-04
RMM:  13    -0.110949538649E+03   -0.63498E-06   -0.67366E-06  3557   0.247E-04
RMM:  14    -0.110949538009E+03    0.63932E-06   -0.34769E-07  3372   0.247E-04
 Linear response G [H, r] |phi>, progress :
  Direction:   2
       N       E                     dE             d eps       ncg     rms
RMM:   1    -0.113058099568E+03   -0.11306E+03    0.44365E+02  5180   0.900E+01
RMM:   2    -0.115024767132E+03   -0.19667E+01   -0.29961E+01  4717   0.184E+01
RMM:   3    -0.115268574565E+03   -0.24381E+00   -0.11608E+00  4807   0.363E+00
RMM:   4    -0.115281310195E+03   -0.12736E-01   -0.55680E-02  5129   0.663E-01
RMM:   5    -0.115281481678E+03   -0.17148E-03   -0.32611E-03  4928   0.157E-01
RMM:   6    -0.115281503505E+03   -0.21827E-04   -0.23540E-04  5054   0.378E-02
RMM:   7    -0.115281501514E+03    0.19912E-05   -0.16405E-05  5035   0.957E-03
RMM:   8    -0.115281501544E+03   -0.30553E-07   -0.30656E-06  4964   0.256E-03
RMM:   9    -0.115281501420E+03    0.12454E-06   -0.65427E-07  4761   0.806E-04
RMM:  10    -0.115281501417E+03    0.25384E-08   -0.54395E-07  4527   0.373E-04
RMM:  11    -0.115281501410E+03    0.72714E-08   -0.46320E-07  4106   0.262E-04
RMM:  12    -0.115281501424E+03   -0.13804E-07   -0.59812E-07  3768   0.236E-04
RMM:  13    -0.115281501392E+03    0.32248E-07   -0.27914E-07  3523   0.230E-04
RMM:  14    -0.115281501419E+03   -0.27733E-07   -0.55453E-07  3343   0.228E-04
 Linear response G [H, r] |phi>, progress :
  Direction:   3
       N       E                     dE             d eps       ncg     rms
RMM:   1    -0.110967816838E+03   -0.11097E+03    0.55871E+02  4987   0.919E+01
RMM:   2    -0.113302897336E+03   -0.23351E+01   -0.34990E+01  4570   0.179E+01
RMM:   3    -0.113361488578E+03   -0.58591E-01   -0.17323E+00  4720   0.403E+00
RMM:   4    -0.113374061352E+03   -0.12573E-01   -0.87905E-02  5124   0.717E-01
RMM:   5    -0.113373716027E+03    0.34532E-03   -0.54183E-03  4825   0.186E-01
RMM:   6    -0.113373755507E+03   -0.39480E-04   -0.28579E-04  4965   0.404E-02
RMM:   7    -0.113373756396E+03   -0.88929E-06   -0.14450E-05  4791   0.108E-02
RMM:   8    -0.113373757047E+03   -0.65055E-06   -0.39756E-07  4772   0.263E-03
RMM:   9    -0.113373757095E+03   -0.48555E-07    0.27881E-07  4518   0.833E-04
RMM:  10    -0.113373757127E+03   -0.32220E-07    0.38227E-08  4394   0.303E-04
RMM:  11    -0.113373757127E+03    0.54870E-09    0.40590E-08  4046   0.186E-04
 Linear response to external field (no local field effect), progress :
  Direction:   1
       N       E                     dE             d eps       ncg     rms          rms(c)
RMM:   1    -0.178416500988E+01   -0.17842E+01   -0.11427E+01  5302   0.361E+00
RMM:   2    -0.207069220966E+01   -0.28653E+00   -0.91358E-02  4479   0.755E-01
RMM:   3    -0.207369379685E+01   -0.30016E-02   -0.70082E-03  4658   0.152E-01
RMM:   4    -0.207381925236E+01   -0.12546E-03   -0.23383E-04  4824   0.293E-02
RMM:   5    -0.207382285512E+01   -0.36028E-05   -0.91302E-06  4775   0.641E-03
RMM:   6    -0.207382294490E+01   -0.89789E-07   -0.34008E-07  4753   0.128E-03
RMM:   7    -0.207382294829E+01   -0.33808E-08   -0.19649E-08  4504   0.330E-04
 Linear response to external field (no local field effect), progress :
  Direction:   2
       N       E                     dE             d eps       ncg     rms          rms(c)
RMM:   1    -0.174793174098E+01   -0.17479E+01   -0.10894E+01  5206   0.365E+00
RMM:   2    -0.194207840762E+01   -0.19415E+00   -0.82159E-02  4499   0.747E-01
RMM:   3    -0.194469939837E+01   -0.26210E-02   -0.54937E-03  4633   0.151E-01
RMM:   4    -0.194476586375E+01   -0.66465E-04   -0.17957E-04  4826   0.285E-02
RMM:   5    -0.194476797998E+01   -0.21162E-05   -0.96704E-06  4710   0.667E-03
RMM:   6    -0.194476807341E+01   -0.93430E-07   -0.47068E-07  4762   0.146E-03
RMM:   7    -0.194476807640E+01   -0.29906E-08   -0.27945E-08  4535   0.380E-04
 Linear response to external field (no local field effect), progress :
  Direction:   3
       N       E                     dE             d eps       ncg     rms          rms(c)
RMM:   1    -0.990771109543E+00   -0.99077E+00   -0.46236E+00  5111   0.324E+00
RMM:   2    -0.104814813428E+01   -0.57377E-01   -0.29859E-02  4316   0.548E-01
RMM:   3    -0.104873787509E+01   -0.58974E-03   -0.20785E-03  4524   0.116E-01
RMM:   4    -0.104875818192E+01   -0.20307E-04   -0.67750E-05  4732   0.209E-02
RMM:   5    -0.104875886767E+01   -0.68575E-06   -0.41236E-06  4653   0.483E-03
RMM:   6    -0.104875889011E+01   -0.22439E-07   -0.86043E-08  4662   0.996E-04
RMM:   7    -0.104875889964E+01   -0.95329E-08   -0.10842E-08  4311   0.247E-04
 Linear response to external field, progress :
  Direction:   1
       N       E                     dE             d eps       ncg     rms          rms(c)
RMM:   1    -0.176502525726E+01   -0.17650E+01   -0.11150E+01 23191   0.360E+00
RMM:   2    -0.200644122377E+01   -0.24142E+00   -0.86747E-02 19880   0.744E-01    0.253E+00
RMM:   3    -0.194273634535E+01    0.63705E-01   -0.68491E-02 18374   0.105E+00    0.140E+00
RMM:   4    -0.198370088883E+01   -0.40965E-01   -0.53050E-02 17852   0.986E-01    0.374E-01
RMM:   5    -0.200008695723E+01   -0.16386E-01   -0.16989E-03 18294   0.198E-01    0.358E-02
RMM:   6    -0.200171622641E+01   -0.16293E-02   -0.65424E-05 20235   0.347E-02    0.166E-02
RMM:   7    -0.200211148278E+01   -0.39526E-03   -0.19242E-05 19549   0.149E-02    0.565E-03
RMM:   8    -0.200236855078E+01   -0.25707E-03    0.12181E-07 20040   0.362E-03    0.291E-03
RMM:   9    -0.200252440588E+01   -0.15586E-03    0.24275E-06 19177   0.205E-03    0.506E-04
RMM:  10    -0.200254414290E+01   -0.19737E-04    0.35402E-07 20309   0.530E-04    0.220E-04
RMM:  11    -0.200255292892E+01   -0.87860E-05    0.57910E-08 19075   0.240E-04    0.643E-05
RMM:  12    -0.200255417595E+01   -0.12470E-05    0.88636E-08 19404   0.797E-05    0.246E-05
RMM:  13    -0.200255427385E+01   -0.97898E-07   -0.14301E-10 14255   0.261E-05    0.613E-06
 Linear response to external field, progress :
  Direction:   2
       N       E                     dE             d eps       ncg     rms          rms(c)
RMM:   1    -0.176811461370E+01   -0.17681E+01   -0.11181E+01 12857   0.360E+00
RMM:   2    -0.200639106555E+01   -0.23828E+00   -0.87995E-02 11005   0.750E-01    0.253E+00
RMM:   3    -0.194281924056E+01    0.63572E-01   -0.68368E-02 10273   0.105E+00    0.140E+00
RMM:   4    -0.198385368497E+01   -0.41034E-01   -0.54342E-02  9947   0.984E-01    0.373E-01
RMM:   5    -0.200009349671E+01   -0.16240E-01   -0.21471E-03 10152   0.198E-01    0.358E-02
RMM:   6    -0.200165281473E+01   -0.15593E-02   -0.13262E-04 11267   0.356E-02    0.207E-02
RMM:   7    -0.200188674472E+01   -0.23393E-03   -0.12618E-06 11311   0.103E-02    0.107E-02
RMM:   8    -0.200227888384E+01   -0.39214E-03    0.12980E-06 10351   0.863E-03    0.333E-03
RMM:   9    -0.200250340300E+01   -0.22452E-03   -0.26151E-06 10688   0.278E-03    0.732E-04
RMM:  10    -0.200253008515E+01   -0.26682E-04   -0.36514E-07 11123   0.740E-04    0.302E-04
RMM:  11    -0.200254087564E+01   -0.10790E-04   -0.16666E-07 10800   0.276E-04    0.619E-05
RMM:  12    -0.200254091375E+01   -0.38108E-07   -0.51553E-08 10899   0.771E-05    0.315E-05
RMM:  13    -0.200254128719E+01   -0.37344E-06   -0.56809E-09  8359   0.325E-05    0.599E-06
 Linear response to external field, progress :
  Direction:   3
       N       E                     dE             d eps       ncg     rms          rms(c)
RMM:   1    -0.990771109545E+00   -0.99077E+00   -0.46236E+00  5111   0.324E+00
RMM:   2    -0.104814813428E+01   -0.57377E-01   -0.29859E-02  4316   0.548E-01    0.243E+00
RMM:   3    -0.178280665023E+00    0.86987E+00   -0.46613E-01  3888   0.242E+00    0.133E+00
RMM:   4    -0.165415078437E+00    0.12866E-01   -0.66207E-02  3852   0.771E-01    0.444E-01
RMM:   5    -0.146620059792E+00    0.18795E-01   -0.32704E-02  3771   0.476E-01    0.145E-01
RMM:   6    -0.142518071326E+00    0.41020E-02   -0.29784E-03  3714   0.143E-01    0.872E-02
RMM:   7    -0.140678890676E+00    0.18392E-02    0.29357E-03  3613   0.930E-02    0.283E-02
RMM:   8    -0.140978838052E+00   -0.29995E-03   -0.24394E-03  3429   0.665E-02    0.146E-02
RMM:   9    -0.140781711487E+00    0.19713E-03    0.66451E-04  3858   0.227E-02    0.933E-03
RMM:  10    -0.140865818665E+00   -0.84107E-04    0.19726E-03  3462   0.259E-02    0.354E-03
RMM:  11    -0.141194237517E+00   -0.32842E-03    0.18771E-04  3835   0.143E-02    0.235E-03
RMM:  12    -0.141238830121E+00   -0.44593E-04    0.17554E-04  3916   0.772E-03    0.158E-03
RMM:  13    -0.141288062706E+00   -0.49233E-04   -0.13342E-04  3782   0.662E-03    0.667E-04
RMM:  14    -0.141288328351E+00   -0.26565E-06   -0.20441E-04  4006   0.300E-03    0.519E-04
RMM:  15    -0.141263282601E+00    0.25046E-04   -0.50230E-05  3898   0.243E-03    0.246E-04
RMM:  16    -0.141254834739E+00    0.84479E-05   -0.20819E-06  4121   0.918E-04    0.180E-04
RMM:  17    -0.141254880112E+00   -0.45372E-07   -0.29133E-05  3765   0.107E-03    0.691E-05
RMM:  18    -0.141252718771E+00    0.21613E-05   -0.29811E-06  3974   0.279E-04    0.406E-05
RMM:  19    -0.141252879387E+00   -0.16062E-06    0.99354E-07  3664   0.277E-04    0.185E-05
RMM:  20    -0.141253409627E+00   -0.53024E-06   -0.44609E-06  3770   0.931E-05    0.138E-05
RMM:  21    -0.141253137313E+00    0.27231E-06   -0.18827E-06  3367   0.640E-05    0.615E-06
