 vasp.5.4.1 24Jun15 (build Apr 13 2016 13:07:19) complex                        
  
 executed on           IFC91_ompi date 2019.09.13  22:15:23
 running on   28 total cores
 distrk:  each k-point on   28 cores,    1 groups
 distr:  one band on NCORES_PER_BAND=   1 cores,   28 groups


--------------------------------------------------------------------------------------------------------


 INCAR:
 POTCAR:    PAW_PBE W_sv_GW 23Mar2010             
 POTCAR:    PAW_PBE S_GW 19Mar2012                

 ----------------------------------------------------------------------------- 
|                                                                             |
|           W    W    AA    RRRRR   N    N  II  N    N   GGGG   !!!           |
|           W    W   A  A   R    R  NN   N  II  NN   N  G    G  !!!           |
|           W    W  A    A  R    R  N N  N  II  N N  N  G       !!!           |
|           W WW W  AAAAAA  RRRRR   N  N N  II  N  N N  G  GGG   !            |
|           WW  WW  A    A  R   R   N   NN  II  N   NN  G    G                |
|           W    W  A    A  R    R  N    N  II  N    N   GGGG   !!!           |
|                                                                             |
|      For optimal performance we recommend to set                            |
|        NCORE= 4 - approx SQRT( number of cores)                             |
|      NCORE specifies how many cores store one orbital (NPAR=cpu/NCORE).     |
|      This setting can  greatly improve the performance of VASP for DFT.     |
|      The default, NPAR=number of cores might be grossly inefficient         |
|      on modern multi-core architectures or massively parallel machines.     |
|      Do your own testing !!!!                                               |
|      Unfortunately you need to use the default for GW and RPA calculations. |
|      (for HF NCORE is supported but not extensively tested yet)             |
|                                                                             |
 ----------------------------------------------------------------------------- 

 POTCAR:    PAW_PBE W_sv_GW 23Mar2010             
   VRHFIN =W: 5p6s5d                                                            
   LEXCH  = PE                                                                  
   EATOM  =  1863.8917 eV,  136.9922 Ry                                         
                                                                                
   TITEL  = PAW_PBE W_sv_GW 23Mar2010                                           
   LULTRA =        F    use ultrasoft PP ?                                      
   IUNSCR =        1    unscreen: 0-lin 1-nonlin 2-no                           
   RPACOR =    1.500    partial core radius                                     
   POMASS =  183.850; ZVAL   =   14.000    mass and valenz                      
   RCORE  =    2.300    outmost cutoff radius                                   
   RWIGS  =    2.600; RWIGS  =    1.376    wigner-seitz radius (au A)           
   ENMAX  =  317.132; ENMIN  =  237.849 eV                                      
   RCLOC  =    1.609    cutoff for local pot                                    
   LCOR   =        T    correct aug charges                                     
   LPAW   =        T    paw PP                                                  
   EAUG   =  807.757                                                            
   DEXC   =    0.000                                                            
   RMAX   =    2.349    core radius for proj-oper                               
   RAUG   =    1.300    factor for augmentation sphere                          
   RDEP   =    2.382    radius for radial grids                                 
   RDEPT  =    1.832    core radius for aug-charge                              
                                                                                
   Atomic configuration                                                         
   14 entries                                                                   
     n  l   j            E        occ.                                          
     1  0  0.50    -69464.1497   2.0000                                         
     2  0  0.50    -11984.7400   2.0000                                         
     2  1  1.50    -10478.3405   6.0000                                         
     3  0  0.50     -2757.5605   2.0000                                         
     3  1  1.50     -2311.6706   6.0000                                         
     3  2  2.50     -1799.5973  10.0000                                         
     4  0  0.50      -566.1609   2.0000                                         
     4  1  1.50      -419.9482   6.0000                                         
     4  2  2.50      -234.8191  10.0000                                         
     4  3  3.50       -29.7363  14.0000                                         
     5  0  0.50       -75.5905   2.0000                                         
     5  1  1.50       -39.9756   6.0000                                         
     5  2  2.50        -2.4479   6.0000                                         
     5  3  2.50        -1.3606   0.0000                                         
   Description                                                                  
     l       E           TYP  RCUT    TYP  RCUT                                 
     0    -75.5905419     23  1.500                                             
     0    -76.9511245     23  1.500                                             
     0    108.8466080     23  1.500                                             
     1    -39.9756040     23  1.800                                             
     1     68.0291300     23  1.800                                             
     2     -2.4478587     23  2.150                                             
     2     -0.0030619     23  2.150                                             
     3      4.0817478     23  2.300                                             
  local pseudopotential read in
  partial core-charges read in
  partial kinetic energy density read in
  kinetic energy density of atom read in
  atomic valenz-charges read in
  non local Contribution for L=           0  read in
    real space projection operators read in
  non local Contribution for L=           0  read in
    real space projection operators read in
  non local Contribution for L=           0  read in
    real space projection operators read in
  non local Contribution for L=           1  read in
    real space projection operators read in
  non local Contribution for L=           1  read in
    real space projection operators read in
  non local Contribution for L=           2  read in
    real space projection operators read in
  non local Contribution for L=           2  read in
    real space projection operators read in
  non local Contribution for L=           3  read in
    real space projection operators read in
    PAW grid and wavefunctions read in
 
   number of l-projection  operators is LMAX  =           8
   number of lm-projection operators is LMMAX =          26
 
 POTCAR:    PAW_PBE S_GW 19Mar2012                
   VRHFIN =S : s2p4                                                             
   LEXCH  = PE                                                                  
   EATOM  =   276.8230 eV,   20.3459 Ry                                         
                                                                                
   TITEL  = PAW_PBE S_GW 19Mar2012                                              
   LULTRA =        F    use ultrasoft PP ?                                      
   IUNSCR =        1    unscreen: 0-lin 1-nonlin 2-no                           
   RPACOR =    1.400    partial core radius                                     
   POMASS =   32.066; ZVAL   =    6.000    mass and valenz                      
   RCORE  =    1.900    outmost cutoff radius                                   
   RWIGS  =    1.900; RWIGS  =    1.005    wigner-seitz radius (au A)           
   ENMAX  =  258.689; ENMIN  =  194.016 eV                                      
   ICORE  =        3    local potential                                         
   LCOR   =        T    correct aug charges                                     
   LPAW   =        T    paw PP                                                  
   EAUG   =  488.319                                                            
   DEXC   =    0.000                                                            
   RMAX   =    1.942    core radius for proj-oper                               
   RAUG   =    1.300    factor for augmentation sphere                          
   RDEP   =    1.954    radius for radial grids                                 
   RDEPT  =    1.900    core radius for aug-charge                              
                                                                                
   Atomic configuration                                                         
    7 entries                                                                   
     n  l   j            E        occ.                                          
     1  0  0.50     -2405.8406   2.0000                                         
     2  0  0.50      -211.7007   2.0000                                         
     2  1  1.50      -156.4958   6.0000                                         
     3  0  0.50       -17.2562   2.0000                                         
     3  1  0.50        -7.0085   4.0000                                         
     3  2  1.50        -8.1635   0.0000                                         
     4  3  2.50        -1.3606   0.0000                                         
   Description                                                                  
     l       E           TYP  RCUT    TYP  RCUT                                 
     0    -17.2561639     23  1.700                                             
     0     88.4378690     23  1.900                                             
     1     -7.0085399     23  1.900                                             
     1     88.4378690     23  1.900                                             
     2    -10.8846608     23  1.900                                             
     2     54.4233040     23  1.900                                             
     3     27.2116520     23  1.800                                             
  local pseudopotential read in
  partial core-charges read in
  partial kinetic energy density read in
  kinetic energy density of atom read in
  atomic valenz-charges read in
  non local Contribution for L=           0  read in
    real space projection operators read in
  non local Contribution for L=           0  read in
    real space projection operators read in
  non local Contribution for L=           1  read in
    real space projection operators read in
  non local Contribution for L=           1  read in
    real space projection operators read in
  non local Contribution for L=           2  read in
    real space projection operators read in
  non local Contribution for L=           2  read in
    real space projection operators read in
    PAW grid and wavefunctions read in
 
   number of l-projection  operators is LMAX  =           6
   number of lm-projection operators is LMMAX =          18
 
  PAW_PBE W_sv_GW 23Mar2010             :
 energy of atom  1       EATOM=-1863.8917
 kinetic energy error for atom=    0.2291 (will be added to EATOM!!)
  PAW_PBE S_GW 19Mar2012                :
 energy of atom  2       EATOM= -276.8230
 kinetic energy error for atom=    0.0074 (will be added to EATOM!!)
 
 
 POSCAR:  W  S                                   
  positions in cartesian coordinates
  No initial velocities read in
 exchange correlation table for  LEXCH =        8
   RHO(1)=    0.500       N(1)  =     2000
   RHO(2)=  100.500       N(2)  =     4000
 


--------------------------------------------------------------------------------------------------------


 ion  position               nearest neighbor table
   1  0.167  0.333  0.500-   2 2.42   3 2.42   2 2.42   3 2.42   2 2.42   3 2.42
   2  0.833  0.667  0.531-   1 2.42   1 2.42   1 2.42
   3  0.833  0.667  0.469-   1 2.42   1 2.42   1 2.42
 
  LATTYP: Found a hexagonal cell.
 ALAT       =     3.1859459497
 C/A-ratio  =    15.6939260082
  
  Lattice vectors:
  
 A1 = (   3.1859459497,   0.0000000000,   0.0000000000)
 A2 = (  -1.5929729748,   2.7591101275,   0.0000000000)
 A3 = (   0.0000000000,   0.0000000000,  50.0000000000)


Analysis of symmetry for initial positions (statically):
=====================================================================
 Subroutine PRICEL returns:
 Original cell was already a primitive cell.
 

 Routine SETGRP: Setting up the symmetry group for a 
 hexagonal supercell.


 Subroutine GETGRP returns: Found 12 space group operations
 (whereof  4 operations were pure point group operations)
 out of a pool of 24 trial point group operations.


The static configuration has the point symmetry C_2v.
 The point group associated with its full space group is D_3h.


Analysis of symmetry for dynamics (positions and initial velocities):
=====================================================================
 Subroutine PRICEL returns:
 Original cell was already a primitive cell.
 

 Routine SETGRP: Setting up the symmetry group for a 
 hexagonal supercell.


 Subroutine GETGRP returns: Found 12 space group operations
 (whereof  4 operations were pure point group operations)
 out of a pool of 24 trial point group operations.


The dynamic configuration has the point symmetry C_2v.
 The point group associated with its full space group is D_3h.


 Subroutine INISYM returns: Found 12 space group operations
 (whereof  4 operations are pure point group operations),
 and found     1 'primitive' translations

 
 
 KPOINTS: KPOINTS created by Atomic Simulation Env

Automatic generation of k-mesh.
Space group operators:
 irot       det(A)        alpha          n_x          n_y          n_z        tau_x        tau_y        tau_z
    1     1.000000     0.000000     1.000000     0.000000     0.000000     0.000000     0.000000     0.000000
    2    -1.000000   180.000000     0.000000     0.000000     1.000000     0.000000     0.000000     0.000000
    3    -1.000000   180.000000     1.000000     0.000000     0.000000     0.000000     0.000000     0.000000
    4     1.000000   180.000000     0.000000     1.000000     0.000000     0.000000     0.000000     0.000000
    5    -1.000000    60.000000     0.000000     0.000000    -1.000000     0.000000     0.500000     0.000000
    6     1.000000   120.000000     0.000000     0.000000    -1.000000     0.500000     0.500000     0.000000
    7     1.000000   120.000000     0.000000     0.000000     1.000000     0.000000     0.500000     0.000000
    8    -1.000000    60.000000     0.000000     0.000000     1.000000     0.500000     0.500000     0.000000
    9     1.000000   180.000000     0.866025    -0.500000     0.000000     0.500000     0.500000     0.000000
   10    -1.000000   180.000000     0.500000    -0.866025     0.000000     0.000000     0.500000     0.000000
   11    -1.000000   180.000000    -0.500000    -0.866025     0.000000     0.500000     0.500000     0.000000
   12     1.000000   180.000000     0.866025     0.500000     0.000000     0.000000     0.500000     0.000000
 
 Subroutine IBZKPT returns following result:
 ===========================================
 
 Found     37 irreducible k-points:
 
 Following reciprocal coordinates:
            Coordinates               Weight
  0.000000  0.000000  0.000000      1.000000
  0.055556  0.000000  0.000000      6.000000
  0.111111  0.000000  0.000000      6.000000
  0.166667  0.000000  0.000000      6.000000
  0.222222  0.000000  0.000000      6.000000
  0.277778  0.000000  0.000000      6.000000
  0.333333  0.000000  0.000000      6.000000
  0.388889  0.000000  0.000000      6.000000
  0.444444  0.000000  0.000000      6.000000
  0.500000  0.000000  0.000000      3.000000
  0.055556  0.055556  0.000000      6.000000
  0.111111  0.055556  0.000000     12.000000
  0.166667  0.055556  0.000000     12.000000
  0.222222  0.055556  0.000000     12.000000
  0.277778  0.055556  0.000000     12.000000
  0.333333  0.055556  0.000000     12.000000
  0.388889  0.055556  0.000000     12.000000
  0.444444  0.055556  0.000000     12.000000
  0.111111  0.111111  0.000000      6.000000
  0.166667  0.111111  0.000000     12.000000
  0.222222  0.111111  0.000000     12.000000
  0.277778  0.111111  0.000000     12.000000
  0.333333  0.111111  0.000000     12.000000
  0.388889  0.111111  0.000000     12.000000
  0.444444  0.111111  0.000000      6.000000
  0.166667  0.166667  0.000000      6.000000
  0.222222  0.166667  0.000000     12.000000
  0.277778  0.166667  0.000000     12.000000
  0.333333  0.166667  0.000000     12.000000
  0.388889  0.166667  0.000000     12.000000
  0.222222  0.222222  0.000000      6.000000
  0.277778  0.222222  0.000000     12.000000
  0.333333  0.222222  0.000000     12.000000
  0.388889  0.222222  0.000000      6.000000
  0.277778  0.277778  0.000000      6.000000
  0.333333  0.277778  0.000000     12.000000
  0.333333  0.333333  0.000000      2.000000
 
 Following cartesian coordinates:
            Coordinates               Weight
  0.000000  0.000000  0.000000      1.000000
  0.017438  0.010068  0.000000      6.000000
  0.034875  0.020135  0.000000      6.000000
  0.052313  0.030203  0.000000      6.000000
  0.069751  0.040271  0.000000      6.000000
  0.087188  0.050338  0.000000      6.000000
  0.104626  0.060406  0.000000      6.000000
  0.122064  0.070474  0.000000      6.000000
  0.139502  0.080541  0.000000      6.000000
  0.156939  0.090609  0.000000      3.000000
  0.017438  0.030203  0.000000      6.000000
  0.034875  0.040271  0.000000     12.000000
  0.052313  0.050338  0.000000     12.000000
  0.069751  0.060406  0.000000     12.000000
  0.087188  0.070474  0.000000     12.000000
  0.104626  0.080541  0.000000     12.000000
  0.122064  0.090609  0.000000     12.000000
  0.139502  0.100677  0.000000     12.000000
  0.034875  0.060406  0.000000      6.000000
  0.052313  0.070474  0.000000     12.000000
  0.069751  0.080541  0.000000     12.000000
  0.087188  0.090609  0.000000     12.000000
  0.104626  0.100677  0.000000     12.000000
  0.122064  0.110744  0.000000     12.000000
  0.139502  0.120812  0.000000      6.000000
  0.052313  0.090609  0.000000      6.000000
  0.069751  0.100677  0.000000     12.000000
  0.087188  0.110744  0.000000     12.000000
  0.104626  0.120812  0.000000     12.000000
  0.122064  0.130880  0.000000     12.000000
  0.069751  0.120812  0.000000      6.000000
  0.087188  0.130880  0.000000     12.000000
  0.104626  0.140947  0.000000     12.000000
  0.122064  0.151015  0.000000      6.000000
  0.087188  0.151015  0.000000      6.000000
  0.104626  0.161083  0.000000     12.000000
  0.104626  0.181218  0.000000      2.000000
 
 TETIRR: Found    169 inequivalent tetrahedra from     1944
 
 Subroutine IBZKPT_HF returns following result:
 ==============================================
 
 Found    324 k-points in 1st BZ
 the following    324 k-points will be used (e.g. in the exchange kernel)
 Following reciprocal coordinates:   # in IRBZ
  0.000000  0.000000  0.000000    0.00308642   1 t-inv F
  0.055556  0.000000  0.000000    0.00308642   2 t-inv F
  0.111111  0.000000  0.000000    0.00308642   3 t-inv F
  0.166667  0.000000  0.000000    0.00308642   4 t-inv F
  0.222222  0.000000  0.000000    0.00308642   5 t-inv F
  0.277778  0.000000  0.000000    0.00308642   6 t-inv F
  0.333333  0.000000  0.000000    0.00308642   7 t-inv F
  0.388889  0.000000  0.000000    0.00308642   8 t-inv F
  0.444444  0.000000  0.000000    0.00308642   9 t-inv F
  0.500000  0.000000  0.000000    0.00308642  10 t-inv F
  0.055556  0.055556  0.000000    0.00308642  11 t-inv F
  0.111111  0.055556  0.000000    0.00308642  12 t-inv F
  0.166667  0.055556  0.000000    0.00308642  13 t-inv F
  0.222222  0.055556  0.000000    0.00308642  14 t-inv F
  0.277778  0.055556  0.000000    0.00308642  15 t-inv F
  0.333333  0.055556  0.000000    0.00308642  16 t-inv F
  0.388889  0.055556  0.000000    0.00308642  17 t-inv F
  0.444444  0.055556  0.000000    0.00308642  18 t-inv F
  0.111111  0.111111  0.000000    0.00308642  19 t-inv F
  0.166667  0.111111  0.000000    0.00308642  20 t-inv F
  0.222222  0.111111  0.000000    0.00308642  21 t-inv F
  0.277778  0.111111  0.000000    0.00308642  22 t-inv F
  0.333333  0.111111  0.000000    0.00308642  23 t-inv F
  0.388889  0.111111  0.000000    0.00308642  24 t-inv F
  0.444444  0.111111  0.000000    0.00308642  25 t-inv F
  0.166667  0.166667  0.000000    0.00308642  26 t-inv F
  0.222222  0.166667  0.000000    0.00308642  27 t-inv F
  0.277778  0.166667  0.000000    0.00308642  28 t-inv F
  0.333333  0.166667  0.000000    0.00308642  29 t-inv F
  0.388889  0.166667  0.000000    0.00308642  30 t-inv F
  0.222222  0.222222  0.000000    0.00308642  31 t-inv F
  0.277778  0.222222  0.000000    0.00308642  32 t-inv F
  0.333333  0.222222  0.000000    0.00308642  33 t-inv F
  0.388889  0.222222  0.000000    0.00308642  34 t-inv F
  0.277778  0.277778  0.000000    0.00308642  35 t-inv F
  0.333333  0.277778  0.000000    0.00308642  36 t-inv F
  0.333333  0.333333  0.000000    0.00308642  37 t-inv F
 -0.055556  0.055556  0.000000    0.00308642   2 t-inv F
  0.000000 -0.055556 -0.000000    0.00308642   2 t-inv F
 -0.111111  0.111111  0.000000    0.00308642   3 t-inv F
  0.000000 -0.111111 -0.000000    0.00308642   3 t-inv F
 -0.166667  0.166667  0.000000    0.00308642   4 t-inv F
  0.000000 -0.166667 -0.000000    0.00308642   4 t-inv F
 -0.222222  0.222222  0.000000    0.00308642   5 t-inv F
  0.000000 -0.222222 -0.000000    0.00308642   5 t-inv F
 -0.277778  0.277778  0.000000    0.00308642   6 t-inv F
  0.000000 -0.277778 -0.000000    0.00308642   6 t-inv F
 -0.333333  0.333333  0.000000    0.00308642   7 t-inv F
  0.000000 -0.333333 -0.000000    0.00308642   7 t-inv F
 -0.388889  0.388889  0.000000    0.00308642   8 t-inv F
  0.000000 -0.388889 -0.000000    0.00308642   8 t-inv F
 -0.444444  0.444444  0.000000    0.00308642   9 t-inv F
  0.000000 -0.444444 -0.000000    0.00308642   9 t-inv F
 -0.500000  0.500000  0.000000    0.00308642  10 t-inv F
  0.000000 -0.500000 -0.000000    0.00308642  10 t-inv F
 -0.055556  0.111111  0.000000    0.00308642  11 t-inv F
  0.055556 -0.111111 -0.000000    0.00308642  11 t-inv F
 -0.111111  0.055556  0.000000    0.00308642  11 t-inv F
 -0.055556 -0.055556 -0.000000    0.00308642  11 t-inv F
  0.111111 -0.055556  0.000000    0.00308642  11 t-inv F
 -0.111111  0.166667  0.000000    0.00308642  12 t-inv F
  0.055556 -0.166667 -0.000000    0.00308642  12 t-inv F
 -0.166667  0.111111  0.000000    0.00308642  12 t-inv F
 -0.055556 -0.111111 -0.000000    0.00308642  12 t-inv F
  0.166667 -0.055556  0.000000    0.00308642  12 t-inv F
 -0.166667  0.222222  0.000000    0.00308642  13 t-inv F
  0.055556 -0.222222 -0.000000    0.00308642  13 t-inv F
 -0.222222  0.166667  0.000000    0.00308642  13 t-inv F
 -0.055556 -0.166667 -0.000000    0.00308642  13 t-inv F
  0.222222 -0.055556  0.000000    0.00308642  13 t-inv F
 -0.222222  0.277778  0.000000    0.00308642  14 t-inv F
  0.055556 -0.277778 -0.000000    0.00308642  14 t-inv F
 -0.277778  0.222222  0.000000    0.00308642  14 t-inv F
 -0.055556 -0.222222 -0.000000    0.00308642  14 t-inv F
  0.277778 -0.055556  0.000000    0.00308642  14 t-inv F
 -0.277778  0.333333  0.000000    0.00308642  15 t-inv F
  0.055556 -0.333333 -0.000000    0.00308642  15 t-inv F
 -0.333333  0.277778  0.000000    0.00308642  15 t-inv F
 -0.055556 -0.277778 -0.000000    0.00308642  15 t-inv F
  0.333333 -0.055556  0.000000    0.00308642  15 t-inv F
 -0.333333  0.388889  0.000000    0.00308642  16 t-inv F
  0.055556 -0.388889 -0.000000    0.00308642  16 t-inv F
 -0.388889  0.333333  0.000000    0.00308642  16 t-inv F
 -0.055556 -0.333333 -0.000000    0.00308642  16 t-inv F
  0.388889 -0.055556  0.000000    0.00308642  16 t-inv F
 -0.388889  0.444444  0.000000    0.00308642  17 t-inv F
  0.055556 -0.444444 -0.000000    0.00308642  17 t-inv F
 -0.444444  0.388889  0.000000    0.00308642  17 t-inv F
 -0.055556 -0.388889 -0.000000    0.00308642  17 t-inv F
  0.444444 -0.055556  0.000000    0.00308642  17 t-inv F
 -0.444444  0.500000  0.000000    0.00308642  18 t-inv F
  0.055556 -0.500000 -0.000000    0.00308642  18 t-inv F
 -0.500000  0.444444  0.000000    0.00308642  18 t-inv F
 -0.055556 -0.444444 -0.000000    0.00308642  18 t-inv F
  0.500000 -0.055556  0.000000    0.00308642  18 t-inv F
 -0.111111  0.222222  0.000000    0.00308642  19 t-inv F
  0.111111 -0.222222 -0.000000    0.00308642  19 t-inv F
 -0.222222  0.111111  0.000000    0.00308642  19 t-inv F
 -0.111111 -0.111111 -0.000000    0.00308642  19 t-inv F
  0.222222 -0.111111  0.000000    0.00308642  19 t-inv F
 -0.166667  0.277778  0.000000    0.00308642  20 t-inv F
  0.111111 -0.277778 -0.000000    0.00308642  20 t-inv F
 -0.277778  0.166667  0.000000    0.00308642  20 t-inv F
 -0.111111 -0.166667 -0.000000    0.00308642  20 t-inv F
  0.277778 -0.111111  0.000000    0.00308642  20 t-inv F
 -0.222222  0.333333  0.000000    0.00308642  21 t-inv F
  0.111111 -0.333333 -0.000000    0.00308642  21 t-inv F
 -0.333333  0.222222  0.000000    0.00308642  21 t-inv F
 -0.111111 -0.222222 -0.000000    0.00308642  21 t-inv F
  0.333333 -0.111111  0.000000    0.00308642  21 t-inv F
 -0.277778  0.388889  0.000000    0.00308642  22 t-inv F
  0.111111 -0.388889 -0.000000    0.00308642  22 t-inv F
 -0.388889  0.277778  0.000000    0.00308642  22 t-inv F
 -0.111111 -0.277778 -0.000000    0.00308642  22 t-inv F
  0.388889 -0.111111  0.000000    0.00308642  22 t-inv F
 -0.333333  0.444444  0.000000    0.00308642  23 t-inv F
  0.111111 -0.444444 -0.000000    0.00308642  23 t-inv F
 -0.444444  0.333333  0.000000    0.00308642  23 t-inv F
 -0.111111 -0.333333 -0.000000    0.00308642  23 t-inv F
  0.444444 -0.111111  0.000000    0.00308642  23 t-inv F
 -0.388889  0.500000  0.000000    0.00308642  24 t-inv F
  0.111111 -0.500000 -0.000000    0.00308642  24 t-inv F
 -0.500000  0.388889  0.000000    0.00308642  24 t-inv F
 -0.111111 -0.388889 -0.000000    0.00308642  24 t-inv F
  0.500000 -0.111111  0.000000    0.00308642  24 t-inv F
 -0.444444  0.555556  0.000000    0.00308642  25 t-inv F
  0.111111 -0.555556 -0.000000    0.00308642  25 t-inv F
 -0.555556  0.444444  0.000000    0.00308642  25 t-inv F
 -0.111111 -0.444444 -0.000000    0.00308642  25 t-inv F
  0.555556 -0.111111  0.000000    0.00308642  25 t-inv F
 -0.166667  0.333333  0.000000    0.00308642  26 t-inv F
  0.166667 -0.333333 -0.000000    0.00308642  26 t-inv F
 -0.333333  0.166667  0.000000    0.00308642  26 t-inv F
 -0.166667 -0.166667 -0.000000    0.00308642  26 t-inv F
  0.333333 -0.166667  0.000000    0.00308642  26 t-inv F
 -0.222222  0.388889  0.000000    0.00308642  27 t-inv F
  0.166667 -0.388889 -0.000000    0.00308642  27 t-inv F
 -0.388889  0.222222  0.000000    0.00308642  27 t-inv F
 -0.166667 -0.222222 -0.000000    0.00308642  27 t-inv F
  0.388889 -0.166667  0.000000    0.00308642  27 t-inv F
 -0.277778  0.444444  0.000000    0.00308642  28 t-inv F
  0.166667 -0.444444 -0.000000    0.00308642  28 t-inv F
 -0.444444  0.277778  0.000000    0.00308642  28 t-inv F
 -0.166667 -0.277778 -0.000000    0.00308642  28 t-inv F
  0.444444 -0.166667  0.000000    0.00308642  28 t-inv F
 -0.333333  0.500000  0.000000    0.00308642  29 t-inv F
  0.166667 -0.500000 -0.000000    0.00308642  29 t-inv F
 -0.500000  0.333333  0.000000    0.00308642  29 t-inv F
 -0.166667 -0.333333 -0.000000    0.00308642  29 t-inv F
  0.500000 -0.166667  0.000000    0.00308642  29 t-inv F
 -0.388889  0.555556  0.000000    0.00308642  30 t-inv F
  0.166667 -0.555556 -0.000000    0.00308642  30 t-inv F
 -0.555556  0.388889  0.000000    0.00308642  30 t-inv F
 -0.166667 -0.388889 -0.000000    0.00308642  30 t-inv F
  0.555556 -0.166667  0.000000    0.00308642  30 t-inv F
 -0.222222  0.444444  0.000000    0.00308642  31 t-inv F
  0.222222 -0.444444 -0.000000    0.00308642  31 t-inv F
 -0.444444  0.222222  0.000000    0.00308642  31 t-inv F
 -0.222222 -0.222222 -0.000000    0.00308642  31 t-inv F
  0.444444 -0.222222  0.000000    0.00308642  31 t-inv F
 -0.277778  0.500000  0.000000    0.00308642  32 t-inv F
  0.222222 -0.500000 -0.000000    0.00308642  32 t-inv F
 -0.500000  0.277778  0.000000    0.00308642  32 t-inv F
 -0.222222 -0.277778 -0.000000    0.00308642  32 t-inv F
  0.500000 -0.222222  0.000000    0.00308642  32 t-inv F
 -0.333333  0.555556  0.000000    0.00308642  33 t-inv F
  0.222222 -0.555556 -0.000000    0.00308642  33 t-inv F
 -0.555556  0.333333  0.000000    0.00308642  33 t-inv F
 -0.222222 -0.333333 -0.000000    0.00308642  33 t-inv F
  0.555556 -0.222222  0.000000    0.00308642  33 t-inv F
 -0.388889  0.611111  0.000000    0.00308642  34 t-inv F
  0.222222 -0.611111 -0.000000    0.00308642  34 t-inv F
 -0.611111  0.388889  0.000000    0.00308642  34 t-inv F
 -0.222222 -0.388889 -0.000000    0.00308642  34 t-inv F
  0.611111 -0.222222  0.000000    0.00308642  34 t-inv F
 -0.277778  0.555556  0.000000    0.00308642  35 t-inv F
  0.277778 -0.555556 -0.000000    0.00308642  35 t-inv F
 -0.555556  0.277778  0.000000    0.00308642  35 t-inv F
 -0.277778 -0.277778 -0.000000    0.00308642  35 t-inv F
  0.555556 -0.277778  0.000000    0.00308642  35 t-inv F
 -0.333333  0.611111  0.000000    0.00308642  36 t-inv F
  0.277778 -0.611111 -0.000000    0.00308642  36 t-inv F
 -0.611111  0.333333  0.000000    0.00308642  36 t-inv F
 -0.277778 -0.333333 -0.000000    0.00308642  36 t-inv F
  0.611111 -0.277778  0.000000    0.00308642  36 t-inv F
 -0.333333  0.666667  0.000000    0.00308642  37 t-inv F
 -0.055556 -0.000000 -0.000000    0.00308642   2 t-inv T
  0.055556 -0.055556 -0.000000    0.00308642   2 t-inv T
 -0.000000  0.055556  0.000000    0.00308642   2 t-inv T
 -0.111111 -0.000000 -0.000000    0.00308642   3 t-inv T
  0.111111 -0.111111 -0.000000    0.00308642   3 t-inv T
 -0.000000  0.111111  0.000000    0.00308642   3 t-inv T
 -0.166667 -0.000000 -0.000000    0.00308642   4 t-inv T
  0.166667 -0.166667 -0.000000    0.00308642   4 t-inv T
 -0.000000  0.166667  0.000000    0.00308642   4 t-inv T
 -0.222222 -0.000000 -0.000000    0.00308642   5 t-inv T
  0.222222 -0.222222 -0.000000    0.00308642   5 t-inv T
 -0.000000  0.222222  0.000000    0.00308642   5 t-inv T
 -0.277778 -0.000000 -0.000000    0.00308642   6 t-inv T
  0.277778 -0.277778 -0.000000    0.00308642   6 t-inv T
 -0.000000  0.277778  0.000000    0.00308642   6 t-inv T
 -0.333333 -0.000000 -0.000000    0.00308642   7 t-inv T
  0.333333 -0.333333 -0.000000    0.00308642   7 t-inv T
 -0.000000  0.333333  0.000000    0.00308642   7 t-inv T
 -0.388889 -0.000000 -0.000000    0.00308642   8 t-inv T
  0.388889 -0.388889 -0.000000    0.00308642   8 t-inv T
 -0.000000  0.388889  0.000000    0.00308642   8 t-inv T
 -0.444444 -0.000000 -0.000000    0.00308642   9 t-inv T
  0.444444 -0.444444 -0.000000    0.00308642   9 t-inv T
 -0.000000  0.444444  0.000000    0.00308642   9 t-inv T
 -0.111111 -0.055556 -0.000000    0.00308642  12 t-inv T
  0.111111 -0.166667 -0.000000    0.00308642  12 t-inv T
 -0.055556  0.166667  0.000000    0.00308642  12 t-inv T
  0.166667 -0.111111 -0.000000    0.00308642  12 t-inv T
  0.055556  0.111111  0.000000    0.00308642  12 t-inv T
 -0.166667  0.055556 -0.000000    0.00308642  12 t-inv T
 -0.166667 -0.055556 -0.000000    0.00308642  13 t-inv T
  0.166667 -0.222222 -0.000000    0.00308642  13 t-inv T
 -0.055556  0.222222  0.000000    0.00308642  13 t-inv T
  0.222222 -0.166667 -0.000000    0.00308642  13 t-inv T
  0.055556  0.166667  0.000000    0.00308642  13 t-inv T
 -0.222222  0.055556 -0.000000    0.00308642  13 t-inv T
 -0.222222 -0.055556 -0.000000    0.00308642  14 t-inv T
  0.222222 -0.277778 -0.000000    0.00308642  14 t-inv T
 -0.055556  0.277778  0.000000    0.00308642  14 t-inv T
  0.277778 -0.222222 -0.000000    0.00308642  14 t-inv T
  0.055556  0.222222  0.000000    0.00308642  14 t-inv T
 -0.277778  0.055556 -0.000000    0.00308642  14 t-inv T
 -0.277778 -0.055556 -0.000000    0.00308642  15 t-inv T
  0.277778 -0.333333 -0.000000    0.00308642  15 t-inv T
 -0.055556  0.333333  0.000000    0.00308642  15 t-inv T
  0.333333 -0.277778 -0.000000    0.00308642  15 t-inv T
  0.055556  0.277778  0.000000    0.00308642  15 t-inv T
 -0.333333  0.055556 -0.000000    0.00308642  15 t-inv T
 -0.333333 -0.055556 -0.000000    0.00308642  16 t-inv T
  0.333333 -0.388889 -0.000000    0.00308642  16 t-inv T
 -0.055556  0.388889  0.000000    0.00308642  16 t-inv T
  0.388889 -0.333333 -0.000000    0.00308642  16 t-inv T
  0.055556  0.333333  0.000000    0.00308642  16 t-inv T
 -0.388889  0.055556 -0.000000    0.00308642  16 t-inv T
 -0.388889 -0.055556 -0.000000    0.00308642  17 t-inv T
  0.388889 -0.444444 -0.000000    0.00308642  17 t-inv T
 -0.055556  0.444444  0.000000    0.00308642  17 t-inv T
  0.444444 -0.388889 -0.000000    0.00308642  17 t-inv T
  0.055556  0.388889  0.000000    0.00308642  17 t-inv T
 -0.444444  0.055556 -0.000000    0.00308642  17 t-inv T
 -0.444444 -0.055556 -0.000000    0.00308642  18 t-inv T
  0.444444 -0.500000 -0.000000    0.00308642  18 t-inv T
 -0.055556  0.500000  0.000000    0.00308642  18 t-inv T
  0.500000 -0.444444 -0.000000    0.00308642  18 t-inv T
  0.055556  0.444444  0.000000    0.00308642  18 t-inv T
 -0.500000  0.055556 -0.000000    0.00308642  18 t-inv T
 -0.166667 -0.111111 -0.000000    0.00308642  20 t-inv T
  0.166667 -0.277778 -0.000000    0.00308642  20 t-inv T
 -0.111111  0.277778  0.000000    0.00308642  20 t-inv T
  0.277778 -0.166667 -0.000000    0.00308642  20 t-inv T
  0.111111  0.166667  0.000000    0.00308642  20 t-inv T
 -0.277778  0.111111 -0.000000    0.00308642  20 t-inv T
 -0.222222 -0.111111 -0.000000    0.00308642  21 t-inv T
  0.222222 -0.333333 -0.000000    0.00308642  21 t-inv T
 -0.111111  0.333333  0.000000    0.00308642  21 t-inv T
  0.333333 -0.222222 -0.000000    0.00308642  21 t-inv T
  0.111111  0.222222  0.000000    0.00308642  21 t-inv T
 -0.333333  0.111111 -0.000000    0.00308642  21 t-inv T
 -0.277778 -0.111111 -0.000000    0.00308642  22 t-inv T
  0.277778 -0.388889 -0.000000    0.00308642  22 t-inv T
 -0.111111  0.388889  0.000000    0.00308642  22 t-inv T
  0.388889 -0.277778 -0.000000    0.00308642  22 t-inv T
  0.111111  0.277778  0.000000    0.00308642  22 t-inv T
 -0.388889  0.111111 -0.000000    0.00308642  22 t-inv T
 -0.333333 -0.111111 -0.000000    0.00308642  23 t-inv T
  0.333333 -0.444444 -0.000000    0.00308642  23 t-inv T
 -0.111111  0.444444  0.000000    0.00308642  23 t-inv T
  0.444444 -0.333333 -0.000000    0.00308642  23 t-inv T
  0.111111  0.333333  0.000000    0.00308642  23 t-inv T
 -0.444444  0.111111 -0.000000    0.00308642  23 t-inv T
 -0.388889 -0.111111 -0.000000    0.00308642  24 t-inv T
  0.388889 -0.500000 -0.000000    0.00308642  24 t-inv T
 -0.111111  0.500000  0.000000    0.00308642  24 t-inv T
  0.500000 -0.388889 -0.000000    0.00308642  24 t-inv T
  0.111111  0.388889  0.000000    0.00308642  24 t-inv T
 -0.500000  0.111111 -0.000000    0.00308642  24 t-inv T
 -0.222222 -0.166667 -0.000000    0.00308642  27 t-inv T
  0.222222 -0.388889 -0.000000    0.00308642  27 t-inv T
 -0.166667  0.388889  0.000000    0.00308642  27 t-inv T
  0.388889 -0.222222 -0.000000    0.00308642  27 t-inv T
  0.166667  0.222222  0.000000    0.00308642  27 t-inv T
 -0.388889  0.166667 -0.000000    0.00308642  27 t-inv T
 -0.277778 -0.166667 -0.000000    0.00308642  28 t-inv T
  0.277778 -0.444444 -0.000000    0.00308642  28 t-inv T
 -0.166667  0.444444  0.000000    0.00308642  28 t-inv T
  0.444444 -0.277778 -0.000000    0.00308642  28 t-inv T
  0.166667  0.277778  0.000000    0.00308642  28 t-inv T
 -0.444444  0.166667 -0.000000    0.00308642  28 t-inv T
 -0.333333 -0.166667 -0.000000    0.00308642  29 t-inv T
  0.333333 -0.500000 -0.000000    0.00308642  29 t-inv T
 -0.166667  0.500000  0.000000    0.00308642  29 t-inv T
  0.500000 -0.333333 -0.000000    0.00308642  29 t-inv T
  0.166667  0.333333  0.000000    0.00308642  29 t-inv T
 -0.500000  0.166667 -0.000000    0.00308642  29 t-inv T
 -0.388889 -0.166667 -0.000000    0.00308642  30 t-inv T
  0.388889 -0.555556 -0.000000    0.00308642  30 t-inv T
 -0.166667  0.555556  0.000000    0.00308642  30 t-inv T
  0.555556 -0.388889 -0.000000    0.00308642  30 t-inv T
  0.166667  0.388889  0.000000    0.00308642  30 t-inv T
 -0.555556  0.166667 -0.000000    0.00308642  30 t-inv T
 -0.277778 -0.222222 -0.000000    0.00308642  32 t-inv T
  0.277778 -0.500000 -0.000000    0.00308642  32 t-inv T
 -0.222222  0.500000  0.000000    0.00308642  32 t-inv T
  0.500000 -0.277778 -0.000000    0.00308642  32 t-inv T
  0.222222  0.277778  0.000000    0.00308642  32 t-inv T
 -0.500000  0.222222 -0.000000    0.00308642  32 t-inv T
 -0.333333 -0.222222 -0.000000    0.00308642  33 t-inv T
  0.333333 -0.555556 -0.000000    0.00308642  33 t-inv T
 -0.222222  0.555556  0.000000    0.00308642  33 t-inv T
  0.555556 -0.333333 -0.000000    0.00308642  33 t-inv T
  0.222222  0.333333  0.000000    0.00308642  33 t-inv T
 -0.555556  0.222222 -0.000000    0.00308642  33 t-inv T
 -0.333333 -0.277778 -0.000000    0.00308642  36 t-inv T
  0.333333 -0.611111 -0.000000    0.00308642  36 t-inv T
 -0.277778  0.611111  0.000000    0.00308642  36 t-inv T
  0.611111 -0.333333 -0.000000    0.00308642  36 t-inv T
  0.277778  0.333333  0.000000    0.00308642  36 t-inv T
 -0.611111  0.277778 -0.000000    0.00308642  36 t-inv T


--------------------------------------------------------------------------------------------------------




 Dimension of arrays:
   k-points           NKPTS =     37   k-points in BZ     NKDIM =     37   number of bands    NBANDS=     28
   number of dos      NEDOS =    301   number of ions     NIONS =      3
   non local maximal  LDIM  =      8   non local SUM 2l+1 LMDIM =     26
   total plane-waves  NPLWV = 117600
   max r-space proj   IRMAX =      1   max aug-charges    IRDMAX=  10412
   dimension x,y,z NGX =    20 NGY =   20 NGZ =  294
   dimension x,y,z NGXF=    40 NGYF=   40 NGZF=  588
   support grid    NGXF=    40 NGYF=   40 NGZF=  588
   ions per type =               1   2
 NGX,Y,Z   is equivalent  to a cutoff of  10.44, 10.44,  9.78 a.u.
 NGXF,Y,Z  is equivalent  to a cutoff of  20.87, 20.87, 19.55 a.u.


 I would recommend the setting:
   dimension x,y,z NGX =    19 NGY =   19 NGZ =  290
 SYSTEM =  unknown system                          
 POSCAR =   W  S                                   

 Startparameter for this run:
   NWRITE =      2    write-flag & timer
   PREC   = accura    normal or accurate (medium, high low for compatibility)
   ISTART =      0    job   : 0-new  1-cont  2-samecut
   ICHARG =      2    charge: 1-file 2-atom 10-const
   ISPIN  =      1    spin polarized calculation?
   LNONCOLLINEAR =      F non collinear calculations
   LSORBIT =      F    spin-orbit coupling
   INIWAV =      1    electr: 0-lowe 1-rand  2-diag
   LASPH  =      F    aspherical Exc in radial PAW
   METAGGA=      F    non-selfconsistent MetaGGA calc.

 Electronic Relaxation 1
   ENCUT  =  317.1 eV  23.31 Ry    4.83 a.u.   4.63  4.63 72.60*2*pi/ulx,y,z
   ENINI  =  317.1     initial cutoff
   ENAUG  =  807.8 eV  augmentation charge cutoff
   NELM   =     60;   NELMIN=  5; NELMDL= -5     # of ELM steps 
   EDIFF  = 0.1E-07   stopping-criterion for ELM
   LREAL  =      F    real-space projection
   NLSPLINE    = F    spline interpolate recip. space projectors
   LCOMPAT=      F    compatible to vasp.4.4
   GGA_COMPAT  = T    GGA compatible to vasp.4.4-vasp.4.6
   LMAXPAW     = -100 max onsite density
   LMAXMIX     =    2 max onsite mixed and CHGCAR
   VOSKOWN=      0    Vosko Wilk Nusair interpolation
   ROPT   =    0.00000   0.00000
 Ionic relaxation
   EDIFFG = 0.1E-06   stopping-criterion for IOM
   NSW    =      0    number of steps for IOM
   NBLOCK =      1;   KBLOCK =      1    inner block; outer block 
   IBRION =     -1    ionic relax: 0-MD 1-quasi-New 2-CG
   NFREE  =      0    steps in history (QN), initial steepest desc. (CG)
   ISIF   =      2    stress and relaxation
   IWAVPR =     10    prediction:  0-non 1-charg 2-wave 3-comb
   ISYM   =      2    0-nonsym 1-usesym 2-fastsym
   LCORR  =      T    Harris-Foulkes like correction to forces

   POTIM  = 0.5000    time-step for ionic-motion
   TEIN   =    0.0    initial temperature
   TEBEG  =    0.0;   TEEND  =   0.0 temperature during run
   SMASS  =  -3.00    Nose mass-parameter (am)
   estimated Nose-frequenzy (Omega)   =  0.10E-29 period in steps =****** mass=  -0.232E-27a.u.
   SCALEE = 1.0000    scale energy and forces
   NPACO  =    256;   APACO  = 16.0  distance and # of slots for P.C.
   PSTRESS=    0.0 pullay stress

  Mass of Ions in am
   POMASS = 183.85 32.07
  Ionic Valenz
   ZVAL   =  14.00  6.00
  Atomic Wigner-Seitz radii
   RWIGS  =  -1.00 -1.00
  virtual crystal weights 
   VCA    =   1.00  1.00
   NELECT =      26.0000    total number of electrons
   NUPDOWN=      -1.0000    fix difference up-down

 DOS related values:
   EMIN   =  10.00;   EMAX   =-10.00  energy-range for DOS
   EFERMI =   0.00
   ISMEAR =    -5;   SIGMA  =   0.01  broadening in eV -4-tet -1-fermi 0-gaus

 Electronic relaxation 2 (details)
   IALGO  =     38    algorithm
   LDIAG  =      T    sub-space diagonalisation (order eigenvalues)
   LSUBROT=      F    optimize rotation matrix (better conditioning)
   TURBO    =      0    0=normal 1=particle mesh
   IRESTART =      0    0=no restart 2=restart with 2 vectors
   NREBOOT  =      0    no. of reboots
   NMIN     =      0    reboot dimension
   EREF     =   0.00    reference energy to select bands
   IMIX   =      4    mixing-type and parameters
     AMIX     =   0.40;   BMIX     =  1.00
     AMIX_MAG =   1.60;   BMIX_MAG =  1.00
     AMIN     =   0.10
     WC   =   100.;   INIMIX=   1;  MIXPRE=   1;  MAXMIX= -45

 Intra band minimization:
   WEIMIN = 0.0000     energy-eigenvalue tresh-hold
   EBREAK =  0.89E-10  absolut break condition
   DEPER  =   0.30     relativ break condition  

   TIME   =   0.40     timestep for ELM

  volume/ion in A,a.u.               =     146.51       988.67
  Fermi-wavevector in a.u.,A,eV,Ry     =   0.637882  1.205422  5.536116  0.406893
  Thomas-Fermi vector in A             =   1.703037
 
 Write flags
   LWAVE  =      T    write WAVECAR
   LCHARG =      T    write CHGCAR
   LVTOT  =      F    write LOCPOT, total local potential
   LVHAR  =      F    write LOCPOT, Hartree potential only
   LELF   =      F    write electronic localiz. function (ELF)
   LORBIT =      0    0 simple, 1 ext, 2 COOP (PROOUT)


 Dipole corrections
   LMONO  =      F    monopole corrections only (constant potential shift)
   LDIPOL =      F    correct potential (dipole corrections)
   IDIPOL =      0    1-x, 2-y, 3-z, 4-all directions 
   EPSILON=  1.0000000 bulk dielectric constant

 Exchange correlation treatment:
   GGA     =    PE    GGA type
   LEXCH   =     8    internal setting for exchange type
   VOSKOWN=      0    Vosko Wilk Nusair interpolation
   LHFCALC =     F    Hartree Fock is set to
   LHFONE  =     F    Hartree Fock one center treatment
   AEXX    =    0.0000 exact exchange contribution

 Linear response parameters
   LEPSILON=     T    determine dielectric tensor
   LRPA    =     F    only Hartree local field effects (RPA)
   LNABLA  =     F    use nabla operator in PAW spheres
   LVEL    =     F    velocity operator in full k-point grid
   LINTERFAST=   F  fast interpolation
   KINTER  =     0    interpolate to denser k-point grid
   CSHIFT  =0.1000    complex shift for real part using Kramers Kronig
   OMEGAMAX=  -1.0    maximum frequency
   DEG_THRESHOLD= 0.2000000E-02 threshold for treating states as degnerate
   RTIME   =    0.100 relaxation time in fs

 Orbital magnetization related:
   ORBITALMAG=     F  switch on orbital magnetization
   LCHIMAG   =     F  perturbation theory with respect to B field
   DQ        =  0.001000  dq finite difference perturbation B field



--------------------------------------------------------------------------------------------------------


 Static calculation
 charge density and potential will be updated during run
 non-spin polarized calculation
 Variant of blocked Davidson
 Davidson routine will perform the subspace rotation
 perform sub-space diagonalisation
    after iterative eigenvector-optimisation
 modified Broyden-mixing scheme, WC =      100.0
 initial mixing is a Kerker type mixing with AMIX =  0.4000 and BMIX =      1.0000
 Hartree-type preconditioning will be used
 using additional bands           15
 reciprocal scheme for non local part
 use partial core corrections
 calculate Harris-corrections to forces 
   (improved forces if not selfconsistent)
 use gradient corrections 
 use of overlap-Matrix (Vanderbilt PP)
 Fermi weights with tetrahedron method with Bloechl corrections


--------------------------------------------------------------------------------------------------------


  energy-cutoff  :      317.13
  volume of cell :      439.52
      direct lattice vectors                 reciprocal lattice vectors
     3.185945950  0.000000000  0.000000000     0.313878520  0.181217848  0.000000000
    -1.592972975  2.759110127  0.000000000     0.000000000  0.362435696  0.000000000
     0.000000000  0.000000000 50.000000000     0.000000000  0.000000000  0.020000000

  length of vectors
     3.185945950  3.185945950 50.000000000     0.362435696  0.362435696  0.020000000


 
 k-points in units of 2pi/SCALE and weight: KPOINTS created by Atomic Simulation Env
   0.00000000  0.00000000  0.00000000       0.003
   0.01743770  0.01006766  0.00000000       0.019
   0.03487539  0.02013532  0.00000000       0.019
   0.05231309  0.03020297  0.00000000       0.019
   0.06975078  0.04027063  0.00000000       0.019
   0.08718848  0.05033829  0.00000000       0.019
   0.10462617  0.06040595  0.00000000       0.019
   0.12206387  0.07047361  0.00000000       0.019
   0.13950156  0.08054127  0.00000000       0.019
   0.15693926  0.09060892  0.00000000       0.009
   0.01743770  0.03020297  0.00000000       0.019
   0.03487539  0.04027063  0.00000000       0.037
   0.05231309  0.05033829  0.00000000       0.037
   0.06975078  0.06040595  0.00000000       0.037
   0.08718848  0.07047361  0.00000000       0.037
   0.10462617  0.08054127  0.00000000       0.037
   0.12206387  0.09060892  0.00000000       0.037
   0.13950156  0.10067658  0.00000000       0.037
   0.03487539  0.06040595  0.00000000       0.019
   0.05231309  0.07047361  0.00000000       0.037
   0.06975078  0.08054127  0.00000000       0.037
   0.08718848  0.09060892  0.00000000       0.037
   0.10462617  0.10067658  0.00000000       0.037
   0.12206387  0.11074424  0.00000000       0.037
   0.13950156  0.12081190  0.00000000       0.019
   0.05231309  0.09060892  0.00000000       0.019
   0.06975078  0.10067658  0.00000000       0.037
   0.08718848  0.11074424  0.00000000       0.037
   0.10462617  0.12081190  0.00000000       0.037
   0.12206387  0.13087956  0.00000000       0.037
   0.06975078  0.12081190  0.00000000       0.019
   0.08718848  0.13087956  0.00000000       0.037
   0.10462617  0.14094722  0.00000000       0.037
   0.12206387  0.15101487  0.00000000       0.019
   0.08718848  0.15101487  0.00000000       0.019
   0.10462617  0.16108253  0.00000000       0.037
   0.10462617  0.18121785  0.00000000       0.006
 
 k-points in reciprocal lattice and weights: KPOINTS created by Atomic Simulation Env
   0.00000000  0.00000000  0.00000000       0.003
   0.05555556  0.00000000  0.00000000       0.019
   0.11111111  0.00000000  0.00000000       0.019
   0.16666667  0.00000000  0.00000000       0.019
   0.22222222  0.00000000  0.00000000       0.019
   0.27777778  0.00000000  0.00000000       0.019
   0.33333333  0.00000000  0.00000000       0.019
   0.38888889  0.00000000  0.00000000       0.019
   0.44444444  0.00000000  0.00000000       0.019
   0.50000000  0.00000000  0.00000000       0.009
   0.05555556  0.05555556  0.00000000       0.019
   0.11111111  0.05555556  0.00000000       0.037
   0.16666667  0.05555556  0.00000000       0.037
   0.22222222  0.05555556  0.00000000       0.037
   0.27777778  0.05555556  0.00000000       0.037
   0.33333333  0.05555556  0.00000000       0.037
   0.38888889  0.05555556  0.00000000       0.037
   0.44444444  0.05555556  0.00000000       0.037
   0.11111111  0.11111111  0.00000000       0.019
   0.16666667  0.11111111  0.00000000       0.037
   0.22222222  0.11111111  0.00000000       0.037
   0.27777778  0.11111111  0.00000000       0.037
   0.33333333  0.11111111  0.00000000       0.037
   0.38888889  0.11111111  0.00000000       0.037
   0.44444444  0.11111111  0.00000000       0.019
   0.16666667  0.16666667  0.00000000       0.019
   0.22222222  0.16666667  0.00000000       0.037
   0.27777778  0.16666667  0.00000000       0.037
   0.33333333  0.16666667  0.00000000       0.037
   0.38888889  0.16666667  0.00000000       0.037
   0.22222222  0.22222222  0.00000000       0.019
   0.27777778  0.22222222  0.00000000       0.037
   0.33333333  0.22222222  0.00000000       0.037
   0.38888889  0.22222222  0.00000000       0.019
   0.27777778  0.27777778  0.00000000       0.019
   0.33333333  0.27777778  0.00000000       0.037
   0.33333333  0.33333333  0.00000000       0.006
 
 position of ions in fractional coordinates (direct lattice) 
   0.16666667  0.33333333  0.50000000
   0.83333333  0.66666667  0.53145595
   0.83333333  0.66666667  0.46854405
 
 position of ions in cartesian coordinates  (Angst):
  -0.00000000  0.91970338 25.00000000
   1.59297297  1.83940675 26.57279744
   1.59297297  1.83940675 23.42720256
 


--------------------------------------------------------------------------------------------------------


 k-point  1 :   0.0000 0.0000 0.0000  plane waves:    5665
 k-point  2 :   0.0556 0.0000 0.0000  plane waves:    5678
 k-point  3 :   0.1111 0.0000 0.0000  plane waves:    5694
 k-point  4 :   0.1667 0.0000 0.0000  plane waves:    5688
 k-point  5 :   0.2222 0.0000 0.0000  plane waves:    5678
 k-point  6 :   0.2778 0.0000 0.0000  plane waves:    5680
 k-point  7 :   0.3333 0.0000 0.0000  plane waves:    5664
 k-point  8 :   0.3889 0.0000 0.0000  plane waves:    5618
 k-point  9 :   0.4444 0.0000 0.0000  plane waves:    5614
 k-point 10 :   0.5000 0.0000 0.0000  plane waves:    5640
 k-point 11 :   0.0556 0.0556 0.0000  plane waves:    5667
 k-point 12 :   0.1111 0.0556 0.0000  plane waves:    5690
 k-point 13 :   0.1667 0.0556 0.0000  plane waves:    5692
 k-point 14 :   0.2222 0.0556 0.0000  plane waves:    5676
 k-point 15 :   0.2778 0.0556 0.0000  plane waves:    5662
 k-point 16 :   0.3333 0.0556 0.0000  plane waves:    5638
 k-point 17 :   0.3889 0.0556 0.0000  plane waves:    5616
 k-point 18 :   0.4444 0.0556 0.0000  plane waves:    5629
 k-point 19 :   0.1111 0.1111 0.0000  plane waves:    5683
 k-point 20 :   0.1667 0.1111 0.0000  plane waves:    5684
 k-point 21 :   0.2222 0.1111 0.0000  plane waves:    5654
 k-point 22 :   0.2778 0.1111 0.0000  plane waves:    5640
 k-point 23 :   0.3333 0.1111 0.0000  plane waves:    5632
 k-point 24 :   0.3889 0.1111 0.0000  plane waves:    5617
 k-point 25 :   0.4444 0.1111 0.0000  plane waves:    5622
 k-point 26 :   0.1667 0.1667 0.0000  plane waves:    5641
 k-point 27 :   0.2222 0.1667 0.0000  plane waves:    5630
 k-point 28 :   0.2778 0.1667 0.0000  plane waves:    5640
 k-point 29 :   0.3333 0.1667 0.0000  plane waves:    5611
 k-point 30 :   0.3889 0.1667 0.0000  plane waves:    5600
 k-point 31 :   0.2222 0.2222 0.0000  plane waves:    5625
 k-point 32 :   0.2778 0.2222 0.0000  plane waves:    5604
 k-point 33 :   0.3333 0.2222 0.0000  plane waves:    5590
 k-point 34 :   0.3889 0.2222 0.0000  plane waves:    5584
 k-point 35 :   0.2778 0.2778 0.0000  plane waves:    5569
 k-point 36 :   0.3333 0.2778 0.0000  plane waves:    5542
 k-point 37 :   0.3333 0.3333 0.0000  plane waves:    5520

 maximum and minimum number of plane-waves per node :      5694     5520

 maximum number of plane-waves:      5694
 maximum index in each direction: 
   IXMAX=    4   IYMAX=    4   IZMAX=   72
   IXMIN=   -5   IYMIN=   -4   IZMIN=  -72

 NGX is ok and might be reduce to  20
 NGY is ok and might be reduce to  18
 NGZ is ok and might be reduce to 290

 serial   3D FFT for wavefunctions
 parallel 3D FFT for charge:
    minimum data exchange during FFTs selected (reduces bandwidth)


 total amount of memory used by VASP on root node   131015. kBytes
========================================================================

   base      :      30000. kBytes
   nonl-proj :      88193. kBytes
   fftplans  :       1943. kBytes
   grid      :       7351. kBytes
   one-center:         97. kBytes
   wavefun   :       3431. kBytes
 
     INWAV:  cpu time    0.0000: real time    0.0000
 Broyden mixing: mesh for mixing (old mesh)
   NGX =  9   NGY =  9   NGZ =145
  (NGX  = 40   NGY  = 40   NGZ  =588)
  gives a total of  11745 points

 initial charge density was supplied:
 charge density of overlapping atoms calculated
 number of electron      26.0000000 magnetization 
 keeping initial charge density in first step


--------------------------------------------------------------------------------------------------------


 Maximum index for augmentation-charges          840 (set IRDMAX)


--------------------------------------------------------------------------------------------------------


 First call to EWALD:  gamma=   0.233
 Maximum number of real-space cells 7x 7x 1
 Maximum number of reciprocal cells 1x 1x15

 FEWALD executed in parallel
    FEWALD:  cpu time    0.0010: real time    0.0012


----------------------------------------- Iteration    1(   1)  ---------------------------------------


    POTLOK:  cpu time    0.0290: real time    0.0301
    SETDIJ:  cpu time    0.0060: real time    0.0052
     EDDAV:  cpu time    2.0787: real time    2.0847
 BZINTS: Fermi energy:  2.000086; 26.000000 electrons
         Band energy:-435.554923;  BLOECHL correction: -0.332526
       DOS:  cpu time    0.0100: real time    0.0093
    --------------------------------------------
      LOOP:  cpu time    2.1247: real time    2.1314

 eigenvalue-minimisations  :  3444
 total energy-change (2. order) : 0.1072050E+03  (-0.1081043E+04)
 number of electron      26.0000000 magnetization 
 augmentation part       26.0000000 magnetization 

 Free energy of the ion-electron system (eV)
  ---------------------------------------------------
  alpha Z        PSCENC =        11.69473195
  Ewald energy   TEWEN  =     22654.57366406
  -Hartree energ DENC   =    -24655.27764013
  -exchange      EXHF   =         0.00000000
  -V(xc)+E(xc)   XCENC  =        -1.33723001
  PAW double counting   =      2001.91721715    -1886.10468523
  entropy T*S    EENTRO =         0.00000000
  eigenvalues    EBANDS =      -435.55492267
  atomic energy  EATOM  =      2417.29385024
  Solvation  Ediel_sol  =         0.00000000
  ---------------------------------------------------
  free energy    TOTEN  =       107.20498535 eV

  energy without entropy =      107.20498535  energy(sigma->0) =      107.20498535


--------------------------------------------------------------------------------------------------------




----------------------------------------- Iteration    1(   2)  ---------------------------------------


     EDDAV:  cpu time    1.8187: real time    1.8202
 BZINTS: Fermi energy: -2.683504; 26.000000 electrons
         Band energy:-568.945929;  BLOECHL correction:  0.000000
       DOS:  cpu time    0.0020: real time    0.0021
    --------------------------------------------
      LOOP:  cpu time    1.8217: real time    1.8250

 eigenvalue-minimisations  :  3052
 total energy-change (2. order) :-0.1333910E+03  (-0.1311342E+03)
 number of electron      26.0000000 magnetization 
 augmentation part       26.0000000 magnetization 

 Free energy of the ion-electron system (eV)
  ---------------------------------------------------
  alpha Z        PSCENC =        11.69473195
  Ewald energy   TEWEN  =     22654.57366406
  -Hartree energ DENC   =    -24655.27764013
  -exchange      EXHF   =         0.00000000
  -V(xc)+E(xc)   XCENC  =        -1.33723001
  PAW double counting   =      2001.91721715    -1886.10468523
  entropy T*S    EENTRO =         0.00000000
  eigenvalues    EBANDS =      -568.94592940
  atomic energy  EATOM  =      2417.29385024
  Solvation  Ediel_sol  =         0.00000000
  ---------------------------------------------------
  free energy    TOTEN  =       -26.18602137 eV

  energy without entropy =      -26.18602137  energy(sigma->0) =      -26.18602137


--------------------------------------------------------------------------------------------------------




----------------------------------------- Iteration    1(   3)  ---------------------------------------


     EDDAV:  cpu time    1.9827: real time    1.9844
 BZINTS: Fermi energy: -3.422588; 26.000000 electrons
         Band energy:-571.230140;  BLOECHL correction:  0.000000
       DOS:  cpu time    0.0010: real time    0.0017
    --------------------------------------------
      LOOP:  cpu time    1.9847: real time    1.9887

 eigenvalue-minimisations  :  3276
 total energy-change (2. order) :-0.2284211E+01  (-0.2284211E+01)
 number of electron      26.0000000 magnetization 
 augmentation part       26.0000000 magnetization 

 Free energy of the ion-electron system (eV)
  ---------------------------------------------------
  alpha Z        PSCENC =        11.69473195
  Ewald energy   TEWEN  =     22654.57366406
  -Hartree energ DENC   =    -24655.27764013
  -exchange      EXHF   =         0.00000000
  -V(xc)+E(xc)   XCENC  =        -1.33723001
  PAW double counting   =      2001.91721715    -1886.10468523
  entropy T*S    EENTRO =         0.00000000
  eigenvalues    EBANDS =      -571.23014015
  atomic energy  EATOM  =      2417.29385024
  Solvation  Ediel_sol  =         0.00000000
  ---------------------------------------------------
  free energy    TOTEN  =       -28.47023212 eV

  energy without entropy =      -28.47023212  energy(sigma->0) =      -28.47023212


--------------------------------------------------------------------------------------------------------




----------------------------------------- Iteration    1(   4)  ---------------------------------------


     EDDAV:  cpu time    1.7937: real time    1.7951
 BZINTS: Fermi energy: -3.459358; 26.000000 electrons
         Band energy:-571.244610;  BLOECHL correction:  0.000000
       DOS:  cpu time    0.0010: real time    0.0018
    --------------------------------------------
      LOOP:  cpu time    1.7957: real time    1.7990

 eigenvalue-minimisations  :  2940
 total energy-change (2. order) :-0.1447023E-01  (-0.1447023E-01)
 number of electron      26.0000000 magnetization 
 augmentation part       26.0000000 magnetization 

 Free energy of the ion-electron system (eV)
  ---------------------------------------------------
  alpha Z        PSCENC =        11.69473195
  Ewald energy   TEWEN  =     22654.57366406
  -Hartree energ DENC   =    -24655.27764013
  -exchange      EXHF   =         0.00000000
  -V(xc)+E(xc)   XCENC  =        -1.33723001
  PAW double counting   =      2001.91721715    -1886.10468523
  entropy T*S    EENTRO =         0.00000000
  eigenvalues    EBANDS =      -571.24461038
  atomic energy  EATOM  =      2417.29385024
  Solvation  Ediel_sol  =         0.00000000
  ---------------------------------------------------
  free energy    TOTEN  =       -28.48470235 eV

  energy without entropy =      -28.48470235  energy(sigma->0) =      -28.48470235


--------------------------------------------------------------------------------------------------------




----------------------------------------- Iteration    1(   5)  ---------------------------------------


     EDDAV:  cpu time    2.0047: real time    2.0061
 BZINTS: Fermi energy: -3.477381; 26.000000 electrons
         Band energy:-571.244679;  BLOECHL correction:  0.000000
       DOS:  cpu time    0.0020: real time    0.0019
    CHARGE:  cpu time    0.0860: real time    0.0857
    MIXING:  cpu time    0.0010: real time    0.0013
    --------------------------------------------
      LOOP:  cpu time    2.0947: real time    2.0977

 eigenvalue-minimisations  :  3276
 total energy-change (2. order) :-0.6855782E-04  (-0.6855782E-04)
 number of electron      26.0000006 magnetization 
 augmentation part       -3.4583629 magnetization 

 Broyden mixing:
  rms(total) = 0.76890E+01    rms(broyden)= 0.76890E+01
  rms(prec ) = 0.76914E+01
  weight for this iteration     100.00

 Free energy of the ion-electron system (eV)
  ---------------------------------------------------
  alpha Z        PSCENC =        11.69473195
  Ewald energy   TEWEN  =     22654.57366406
  -Hartree energ DENC   =    -24655.27764013
  -exchange      EXHF   =         0.00000000
  -V(xc)+E(xc)   XCENC  =        -1.33723001
  PAW double counting   =      2001.91721715    -1886.10468523
  entropy T*S    EENTRO =         0.00000000
  eigenvalues    EBANDS =      -571.24467894
  atomic energy  EATOM  =      2417.29385024
  Solvation  Ediel_sol  =         0.00000000
  ---------------------------------------------------
  free energy    TOTEN  =       -28.48477091 eV

  energy without entropy =      -28.48477091  energy(sigma->0) =      -28.48477091


--------------------------------------------------------------------------------------------------------




----------------------------------------- Iteration    1(   6)  ---------------------------------------


    POTLOK:  cpu time    0.0260: real time    0.0270
    SETDIJ:  cpu time    0.0050: real time    0.0049
     EDDAV:  cpu time    1.3538: real time    1.3548
 BZINTS: Fermi energy: -4.968012; 26.000000 electrons
         Band energy:-606.743919;  BLOECHL correction:  0.000000
       DOS:  cpu time    0.0020: real time    0.0018
    CHARGE:  cpu time    0.0850: real time    0.0849
    MIXING:  cpu time    0.0010: real time    0.0010
    --------------------------------------------
      LOOP:  cpu time    1.4738: real time    1.4767

 eigenvalue-minimisations  :  2184
 total energy-change (2. order) : 0.2493973E+01  (-0.2540268E+01)
 number of electron      26.0000006 magnetization 
 augmentation part       -3.2334379 magnetization 

 Broyden mixing:
  rms(total) = 0.71625E+01    rms(broyden)= 0.71625E+01
  rms(prec ) = 0.71629E+01
  weight for this iteration     100.00

 eigenvalues of (default mixing * dielectric matrix)
  average eigenvalue GAMMA=   2.7509
  2.7509

 Free energy of the ion-electron system (eV)
  ---------------------------------------------------
  alpha Z        PSCENC =        11.69473195
  Ewald energy   TEWEN  =     22654.57366406
  -Hartree energ DENC   =    -24615.23814239
  -exchange      EXHF   =         0.00000000
  -V(xc)+E(xc)   XCENC  =        -1.78073668
  PAW double counting   =      2522.51543796    -2408.30568431
  entropy T*S    EENTRO =         0.00000000
  eigenvalues    EBANDS =      -606.74391887
  atomic energy  EATOM  =      2417.29385024
  Solvation  Ediel_sol  =         0.00000000
  ---------------------------------------------------
  free energy    TOTEN  =       -25.99079805 eV

  energy without entropy =      -25.99079805  energy(sigma->0) =      -25.99079805


--------------------------------------------------------------------------------------------------------




----------------------------------------- Iteration    1(   7)  ---------------------------------------


    POTLOK:  cpu time    0.0260: real time    0.0264
    SETDIJ:  cpu time    0.0040: real time    0.0049
     EDDAV:  cpu time    1.8897: real time    1.8920
 BZINTS: Fermi energy: -2.926220; 26.000000 electrons
         Band energy:-565.445667;  BLOECHL correction:  0.000000
       DOS:  cpu time    0.0010: real time    0.0017
    CHARGE:  cpu time    0.0850: real time    0.0847
    MIXING:  cpu time    0.0010: real time    0.0011
    --------------------------------------------
      LOOP:  cpu time    2.0097: real time    2.0133

 eigenvalue-minimisations  :  3136
 total energy-change (2. order) :-0.8903932E+00  (-0.2067614E+01)
 number of electron      26.0000006 magnetization 
 augmentation part       -3.4092448 magnetization 

 Broyden mixing:
  rms(total) = 0.27280E+01    rms(broyden)= 0.27280E+01
  rms(prec ) = 0.27322E+01
  weight for this iteration     100.00

 eigenvalues of (default mixing * dielectric matrix)
  average eigenvalue GAMMA=   1.5206
  0.8230  2.2181

 Free energy of the ion-electron system (eV)
  ---------------------------------------------------
  alpha Z        PSCENC =        11.69473195
  Ewald energy   TEWEN  =     22654.57366406
  -Hartree energ DENC   =    -24659.85292756
  -exchange      EXHF   =         0.00000000
  -V(xc)+E(xc)   XCENC  =        -1.89262505
  PAW double counting   =      3622.20303298    -3505.45525051
  entropy T*S    EENTRO =         0.00000000
  eigenvalues    EBANDS =      -565.44566733
  atomic energy  EATOM  =      2417.29385024
  Solvation  Ediel_sol  =         0.00000000
  ---------------------------------------------------
  free energy    TOTEN  =       -26.88119122 eV

  energy without entropy =      -26.88119122  energy(sigma->0) =      -26.88119122


--------------------------------------------------------------------------------------------------------




----------------------------------------- Iteration    1(   8)  ---------------------------------------


    POTLOK:  cpu time    0.0270: real time    0.0266
    SETDIJ:  cpu time    0.0050: real time    0.0049
     EDDAV:  cpu time    1.5948: real time    1.5966
 BZINTS: Fermi energy: -4.472689; 26.000000 electrons
         Band energy:-591.533816;  BLOECHL correction:  0.000000
       DOS:  cpu time    0.0010: real time    0.0015
    CHARGE:  cpu time    0.0850: real time    0.0847
    MIXING:  cpu time    0.0010: real time    0.0010
    --------------------------------------------
      LOOP:  cpu time    1.7137: real time    1.7178

 eigenvalue-minimisations  :  2632
 total energy-change (2. order) : 0.1187273E+01  (-0.1064856E+01)
 number of electron      26.0000006 magnetization 
 augmentation part       -3.2717370 magnetization 

 Broyden mixing:
  rms(total) = 0.11251E+00    rms(broyden)= 0.11239E+00
  rms(prec ) = 0.11326E+00
  weight for this iteration     100.00

 eigenvalues of (default mixing * dielectric matrix)
  average eigenvalue GAMMA=   1.4385
  1.9370  1.6212  0.7574

 Free energy of the ion-electron system (eV)
  ---------------------------------------------------
  alpha Z        PSCENC =        11.69473195
  Ewald energy   TEWEN  =     22654.57366406
  -Hartree energ DENC   =    -24631.43985509
  -exchange      EXHF   =         0.00000000
  -V(xc)+E(xc)   XCENC  =        -1.94012913
  PAW double counting   =      3394.96943289    -3279.31179710
  entropy T*S    EENTRO =         0.00000000
  eigenvalues    EBANDS =      -591.53381564
  atomic energy  EATOM  =      2417.29385024
  Solvation  Ediel_sol  =         0.00000000
  ---------------------------------------------------
  free energy    TOTEN  =       -25.69391783 eV

  energy without entropy =      -25.69391783  energy(sigma->0) =      -25.69391783


--------------------------------------------------------------------------------------------------------




----------------------------------------- Iteration    1(   9)  ---------------------------------------


    POTLOK:  cpu time    0.0260: real time    0.0267
    SETDIJ:  cpu time    0.0050: real time    0.0049
     EDDAV:  cpu time    1.6677: real time    1.6692
 BZINTS: Fermi energy: -4.152180; 26.000000 electrons
         Band energy:-588.147336;  BLOECHL correction:  0.000000
       DOS:  cpu time    0.0020: real time    0.0017
    CHARGE:  cpu time    0.0850: real time    0.0853
    MIXING:  cpu time    0.0010: real time    0.0010
    --------------------------------------------
      LOOP:  cpu time    1.7877: real time    1.7912

 eigenvalue-minimisations  :  2716
 total energy-change (2. order) :-0.9715873E-03  (-0.1941280E-01)
 number of electron      26.0000006 magnetization 
 augmentation part       -3.2829727 magnetization 

 Broyden mixing:
  rms(total) = 0.20695E+00    rms(broyden)= 0.20695E+00
  rms(prec ) = 0.20699E+00
  weight for this iteration     100.00

 eigenvalues of (default mixing * dielectric matrix)
  average eigenvalue GAMMA=   1.3453
  1.9797  1.9797  0.7889  0.6327

 Free energy of the ion-electron system (eV)
  ---------------------------------------------------
  alpha Z        PSCENC =        11.69473195
  Ewald energy   TEWEN  =     22654.57366406
  -Hartree energ DENC   =    -24635.12892070
  -exchange      EXHF   =         0.00000000
  -V(xc)+E(xc)   XCENC  =        -1.90057440
  PAW double counting   =      3348.27479443    -3232.35509903
  entropy T*S    EENTRO =         0.00000000
  eigenvalues    EBANDS =      -588.14733595
  atomic energy  EATOM  =      2417.29385024
  Solvation  Ediel_sol  =         0.00000000
  ---------------------------------------------------
  free energy    TOTEN  =       -25.69488942 eV

  energy without entropy =      -25.69488942  energy(sigma->0) =      -25.69488942


--------------------------------------------------------------------------------------------------------




----------------------------------------- Iteration    1(  10)  ---------------------------------------


    POTLOK:  cpu time    0.0260: real time    0.0266
    SETDIJ:  cpu time    0.0050: real time    0.0049
     EDDAV:  cpu time    2.0007: real time    2.0025
 BZINTS: Fermi energy: -4.136669; 26.000000 electrons
         Band energy:-587.413195;  BLOECHL correction:  0.000000
       DOS:  cpu time    0.0020: real time    0.0017
    CHARGE:  cpu time    0.0850: real time    0.0845
    MIXING:  cpu time    0.0010: real time    0.0010
    --------------------------------------------
      LOOP:  cpu time    2.1207: real time    2.1236

 eigenvalue-minimisations  :  3304
 total energy-change (2. order) :-0.3786463E-03  (-0.4248505E-03)
 number of electron      26.0000006 magnetization 
 augmentation part       -3.2840701 magnetization 

 Broyden mixing:
  rms(total) = 0.31755E-01    rms(broyden)= 0.31754E-01
  rms(prec ) = 0.31967E-01
  weight for this iteration     100.00

 eigenvalues of (default mixing * dielectric matrix)
  average eigenvalue GAMMA=   1.5231
  2.6718  1.6973  1.6973  0.7671  0.7819

 Free energy of the ion-electron system (eV)
  ---------------------------------------------------
  alpha Z        PSCENC =        11.69473195
  Ewald energy   TEWEN  =     22654.57366406
  -Hartree energ DENC   =    -24635.93808972
  -exchange      EXHF   =         0.00000000
  -V(xc)+E(xc)   XCENC  =        -1.88886570
  PAW double counting   =      3301.28347988    -3185.30084362
  entropy T*S    EENTRO =         0.00000000
  eigenvalues    EBANDS =      -587.41319515
  atomic energy  EATOM  =      2417.29385024
  Solvation  Ediel_sol  =         0.00000000
  ---------------------------------------------------
  free energy    TOTEN  =       -25.69526806 eV

  energy without entropy =      -25.69526806  energy(sigma->0) =      -25.69526806


--------------------------------------------------------------------------------------------------------




----------------------------------------- Iteration    1(  11)  ---------------------------------------


    POTLOK:  cpu time    0.0270: real time    0.0267
    SETDIJ:  cpu time    0.0050: real time    0.0049
     EDDAV:  cpu time    1.9667: real time    1.9698
 BZINTS: Fermi energy: -4.136163; 26.000000 electrons
         Band energy:-585.759518;  BLOECHL correction:  0.000000
       DOS:  cpu time    0.0020: real time    0.0017
    CHARGE:  cpu time    0.0850: real time    0.0847
    MIXING:  cpu time    0.0010: real time    0.0010
    --------------------------------------------
      LOOP:  cpu time    2.0867: real time    2.0913

 eigenvalue-minimisations  :  3248
 total energy-change (2. order) : 0.8552754E-03  (-0.5051115E-03)
 number of electron      26.0000006 magnetization 
 augmentation part       -3.2815644 magnetization 

 Broyden mixing:
  rms(total) = 0.32806E-01    rms(broyden)= 0.32806E-01
  rms(prec ) = 0.32852E-01
  weight for this iteration     100.00

 eigenvalues of (default mixing * dielectric matrix)
  average eigenvalue GAMMA=   1.4173
  2.3049  2.3049  1.2228  1.2228  0.7242  0.7242

 Free energy of the ion-electron system (eV)
  ---------------------------------------------------
  alpha Z        PSCENC =        11.69473195
  Ewald energy   TEWEN  =     22654.57366406
  -Hartree energ DENC   =    -24637.68460559
  -exchange      EXHF   =         0.00000000
  -V(xc)+E(xc)   XCENC  =        -1.88679578
  PAW double counting   =      3300.99059168    -3184.91633149
  entropy T*S    EENTRO =         0.00000000
  eigenvalues    EBANDS =      -585.75951785
  atomic energy  EATOM  =      2417.29385024
  Solvation  Ediel_sol  =         0.00000000
  ---------------------------------------------------
  free energy    TOTEN  =       -25.69441279 eV

  energy without entropy =      -25.69441279  energy(sigma->0) =      -25.69441279


--------------------------------------------------------------------------------------------------------




----------------------------------------- Iteration    1(  12)  ---------------------------------------


    POTLOK:  cpu time    0.0250: real time    0.0265
    SETDIJ:  cpu time    0.0050: real time    0.0049
     EDDAV:  cpu time    2.0347: real time    2.0362
 BZINTS: Fermi energy: -4.134302; 26.000000 electrons
         Band energy:-585.221829;  BLOECHL correction:  0.000000
       DOS:  cpu time    0.0020: real time    0.0018
    CHARGE:  cpu time    0.0860: real time    0.0860
    MIXING:  cpu time    0.0010: real time    0.0011
    --------------------------------------------
      LOOP:  cpu time    2.1547: real time    2.1594

 eigenvalue-minimisations  :  3360
 total energy-change (2. order) : 0.6727923E-04  (-0.3898169E-04)
 number of electron      26.0000006 magnetization 
 augmentation part       -3.2824463 magnetization 

 Broyden mixing:
  rms(total) = 0.67372E-02    rms(broyden)= 0.67372E-02
  rms(prec ) = 0.68534E-02
  weight for this iteration     100.00

 eigenvalues of (default mixing * dielectric matrix)
  average eigenvalue GAMMA=   1.5543
  2.7111  2.2437  1.9023  1.5210  0.9949  0.7537  0.7537

 Free energy of the ion-electron system (eV)
  ---------------------------------------------------
  alpha Z        PSCENC =        11.69473195
  Ewald energy   TEWEN  =     22654.57366406
  -Hartree energ DENC   =    -24638.22791516
  -exchange      EXHF   =         0.00000000
  -V(xc)+E(xc)   XCENC  =        -1.88203707
  PAW double counting   =      3293.51259931    -3177.43740993
  entropy T*S    EENTRO =         0.00000000
  eigenvalues    EBANDS =      -585.22182891
  atomic energy  EATOM  =      2417.29385024
  Solvation  Ediel_sol  =         0.00000000
  ---------------------------------------------------
  free energy    TOTEN  =       -25.69434551 eV

  energy without entropy =      -25.69434551  energy(sigma->0) =      -25.69434551


--------------------------------------------------------------------------------------------------------




----------------------------------------- Iteration    1(  13)  ---------------------------------------


    POTLOK:  cpu time    0.0270: real time    0.0266
    SETDIJ:  cpu time    0.0040: real time    0.0049
     EDDAV:  cpu time    1.9547: real time    1.9561
 BZINTS: Fermi energy: -4.130980; 26.000000 electrons
         Band energy:-584.141762;  BLOECHL correction:  0.000000
       DOS:  cpu time    0.0010: real time    0.0017
    CHARGE:  cpu time    0.0850: real time    0.0845
    MIXING:  cpu time    0.0010: real time    0.0011
    --------------------------------------------
      LOOP:  cpu time    2.0747: real time    2.0775

 eigenvalue-minimisations  :  3220
 total energy-change (2. order) : 0.2379710E-04  (-0.7226366E-05)
 number of electron      26.0000006 magnetization 
 augmentation part       -3.2822368 magnetization 

 Broyden mixing:
  rms(total) = 0.16305E-02    rms(broyden)= 0.16304E-02
  rms(prec ) = 0.18193E-02
  weight for this iteration     100.00

 eigenvalues of (default mixing * dielectric matrix)
  average eigenvalue GAMMA=   1.5959
  3.1559  2.4532  2.2843  1.2785  1.0483  1.0483  0.7494  0.7494

 Free energy of the ion-electron system (eV)
  ---------------------------------------------------
  alpha Z        PSCENC =        11.69473195
  Ewald energy   TEWEN  =     22654.57366406
  -Hartree energ DENC   =    -24639.31336611
  -exchange      EXHF   =         0.00000000
  -V(xc)+E(xc)   XCENC  =        -1.87620042
  PAW double counting   =      3289.08021756    -3173.00545655
  entropy T*S    EENTRO =         0.00000000
  eigenvalues    EBANDS =      -584.14176243
  atomic energy  EATOM  =      2417.29385024
  Solvation  Ediel_sol  =         0.00000000
  ---------------------------------------------------
  free energy    TOTEN  =       -25.69432171 eV

  energy without entropy =      -25.69432171  energy(sigma->0) =      -25.69432171


--------------------------------------------------------------------------------------------------------




----------------------------------------- Iteration    1(  14)  ---------------------------------------


    POTLOK:  cpu time    0.0270: real time    0.0267
    SETDIJ:  cpu time    0.0050: real time    0.0049
     EDDAV:  cpu time    1.8737: real time    1.8764
 BZINTS: Fermi energy: -4.123015; 26.000000 electrons
         Band energy:-583.520451;  BLOECHL correction:  0.000000
       DOS:  cpu time    0.0010: real time    0.0017
    CHARGE:  cpu time    0.0850: real time    0.0844
    MIXING:  cpu time    0.0010: real time    0.0012
    --------------------------------------------
      LOOP:  cpu time    1.9927: real time    1.9979

 eigenvalue-minimisations  :  3080
 total energy-change (2. order) :-0.4736833E-04  (-0.2991473E-05)
 number of electron      26.0000006 magnetization 
 augmentation part       -3.2822578 magnetization 

 Broyden mixing:
  rms(total) = 0.19604E-02    rms(broyden)= 0.19603E-02
  rms(prec ) = 0.20321E-02
  weight for this iteration     100.00

 eigenvalues of (default mixing * dielectric matrix)
  average eigenvalue GAMMA=   1.8964
  5.0661  2.3502  2.3502  2.4063  1.3341  0.7488  0.7488  1.0935  0.9696

 Free energy of the ion-electron system (eV)
  ---------------------------------------------------
  alpha Z        PSCENC =        11.69473195
  Ewald energy   TEWEN  =     22654.57366406
  -Hartree energ DENC   =    -24639.93302156
  -exchange      EXHF   =         0.00000000
  -V(xc)+E(xc)   XCENC  =        -1.87388633
  PAW double counting   =      3288.92194479    -3172.85120151
  entropy T*S    EENTRO =         0.00000000
  eigenvalues    EBANDS =      -583.52045072
  atomic energy  EATOM  =      2417.29385024
  Solvation  Ediel_sol  =         0.00000000
  ---------------------------------------------------
  free energy    TOTEN  =       -25.69436908 eV

  energy without entropy =      -25.69436908  energy(sigma->0) =      -25.69436908


--------------------------------------------------------------------------------------------------------




[...]
      LOOP:  cpu time    2.3546: real time    2.3580

 Broyden mixing:
  rms(total) = 0.24585E-04    rms(broyden)= 0.24582E-04
  rms(prec ) = 0.29730E-04
  weight for this iteration     100.00

 eigenvalues of (default mixing * dielectric matrix)
  average eigenvalue GAMMA=   2.2786
  6.5126  6.0981  3.0601  3.0601  1.9426  1.9426  1.4570  0.8119  1.1379  0.9652
  0.9759  0.9759  0.6822

 Free energy of the ion-electron system (eV)
  ---------------------------------------------------
  -Hartree energ DENC   =        -0.11147326
  -V(xc)+E(xc)   XCENC  =         0.00235246
  PAW double counting   =         0.00361804       -0.00363047
  entropy T*S    EENTRO =         0.00000000
  eigenvalues    EBANDS =        -0.03213005
  ---------------------------------------------------
  free energy    TOTEN  =        -0.14126328 eV

  energy without entropy =       -0.14126328


----------------------------------------- Iteration    3(  16)  ---------------------------------------


   POT+DIJ:  cpu time    0.0700: real time    0.0694
    HAMIL1:  cpu time    0.3310: real time    0.3330
    LRDIAG:  cpu time    0.0510: real time    0.0507
    LRDIIS:  cpu time    1.7027: real time    1.7030
    LRDIAG:  cpu time    0.0520: real time    0.0519
    MIXING:  cpu time    0.0020: real time    0.0024
    --------------------------------------------
      LOOP:  cpu time    2.4216: real time    2.4253

 Broyden mixing:
  rms(total) = 0.17999E-04    rms(broyden)= 0.17998E-04
  rms(prec ) = 0.21486E-04
  weight for this iteration     100.00

 eigenvalues of (default mixing * dielectric matrix)
  average eigenvalue GAMMA=   2.4135
  7.3262  6.4216  3.4455  3.4455  2.2386  2.2386  1.5983  1.5983  0.8118  1.0288
  1.0288  0.9662  0.9662  0.6748

 Free energy of the ion-electron system (eV)
  ---------------------------------------------------
  -Hartree energ DENC   =        -0.11147003
  -V(xc)+E(xc)   XCENC  =         0.00235196
  PAW double counting   =         0.00362270       -0.00363513
  entropy T*S    EENTRO =         0.00000000
  eigenvalues    EBANDS =        -0.03212433
  ---------------------------------------------------
  free energy    TOTEN  =        -0.14125483 eV

  energy without entropy =       -0.14125483


----------------------------------------- Iteration    3(  17)  ---------------------------------------


   POT+DIJ:  cpu time    0.0830: real time    0.0835
    HAMIL1:  cpu time    0.3319: real time    0.3337
    LRDIAG:  cpu time    0.0520: real time    0.0514
    LRDIIS:  cpu time    1.5628: real time    1.5642
    LRDIAG:  cpu time    0.0450: real time    0.0456
    MIXING:  cpu time    0.0020: real time    0.0015
    --------------------------------------------
      LOOP:  cpu time    2.2927: real time    2.2990

 Broyden mixing:
  rms(total) = 0.69117E-05    rms(broyden)= 0.69114E-05
  rms(prec ) = 0.82447E-05
  weight for this iteration     100.00

 eigenvalues of (default mixing * dielectric matrix)
  average eigenvalue GAMMA=   2.3969
  7.5297  6.5484  3.5588  3.5588  2.2851  2.2851  1.6300  1.6300  1.4302  0.8118
  0.9508  1.0345  1.0100  1.0100  0.6804

 Free energy of the ion-electron system (eV)
  ---------------------------------------------------
  -Hartree energ DENC   =        -0.11147826
  -V(xc)+E(xc)   XCENC  =         0.00235175
  PAW double counting   =         0.00361700       -0.00362944
  entropy T*S    EENTRO =         0.00000000
  eigenvalues    EBANDS =        -0.03211592
  ---------------------------------------------------
  free energy    TOTEN  =        -0.14125488 eV

  energy without entropy =       -0.14125488


----------------------------------------- Iteration    3(  18)  ---------------------------------------


   POT+DIJ:  cpu time    0.0690: real time    0.0698
    HAMIL1:  cpu time    0.3349: real time    0.3356
    LRDIAG:  cpu time    0.0510: real time    0.0506
    LRDIIS:  cpu time    1.6757: real time    1.6762
    LRDIAG:  cpu time    0.0450: real time    0.0453
    MIXING:  cpu time    0.0020: real time    0.0016
    --------------------------------------------
      LOOP:  cpu time    2.3926: real time    2.3960

 Broyden mixing:
  rms(total) = 0.40588E-05    rms(broyden)= 0.40585E-05
  rms(prec ) = 0.49316E-05
  weight for this iteration     100.00

 eigenvalues of (default mixing * dielectric matrix)
  average eigenvalue GAMMA=   2.5051
  8.0984  6.9729  4.4561  3.6771  2.5964  2.5964  2.0295  1.6839  1.5649  0.8118
  1.0381  1.0098  1.0098  0.9675  0.8838  0.6853

 Free energy of the ion-electron system (eV)
  ---------------------------------------------------
  -Hartree energ DENC   =        -0.11147743
  -V(xc)+E(xc)   XCENC  =         0.00235136
  PAW double counting   =         0.00361745       -0.00362989
  entropy T*S    EENTRO =         0.00000000
  eigenvalues    EBANDS =        -0.03211420
  ---------------------------------------------------
  free energy    TOTEN  =        -0.14125272 eV

  energy without entropy =       -0.14125272


----------------------------------------- Iteration    3(  19)  ---------------------------------------


   POT+DIJ:  cpu time    0.0690: real time    0.0695
    HAMIL1:  cpu time    0.3309: real time    0.3308
    LRDIAG:  cpu time    0.0510: real time    0.0508
    LRDIIS:  cpu time    1.5978: real time    1.5980
    LRDIAG:  cpu time    0.0490: real time    0.0505
    MIXING:  cpu time    0.0020: real time    0.0017
    --------------------------------------------
      LOOP:  cpu time    2.3146: real time    2.3179

 Broyden mixing:
  rms(total) = 0.18479E-05    rms(broyden)= 0.18476E-05
  rms(prec ) = 0.22014E-05
  weight for this iteration     100.00

 eigenvalues of (default mixing * dielectric matrix)
  average eigenvalue GAMMA=   2.5087
  8.2272  7.0631  4.5005  3.8395  2.6703  2.6703  2.0154  2.0154  1.6495  1.5832
  0.8118  1.0271  1.0271  0.9851  0.9851  0.8916  0.6852

 Free energy of the ion-electron system (eV)
  ---------------------------------------------------
  -Hartree energ DENC   =        -0.11147753
  -V(xc)+E(xc)   XCENC  =         0.00235102
  PAW double counting   =         0.00361701       -0.00362946
  entropy T*S    EENTRO =         0.00000000
  eigenvalues    EBANDS =        -0.03211392
  ---------------------------------------------------
  free energy    TOTEN  =        -0.14125288 eV

  energy without entropy =       -0.14125288


----------------------------------------- Iteration    3(  20)  ---------------------------------------


   POT+DIJ:  cpu time    0.0700: real time    0.0703
    HAMIL1:  cpu time    0.3319: real time    0.3324
    LRDIAG:  cpu time    0.0510: real time    0.0505
    LRDIIS:  cpu time    1.6258: real time    1.6277
    LRDIAG:  cpu time    0.0450: real time    0.0459
    MIXING:  cpu time    0.0010: real time    0.0017
    --------------------------------------------
      LOOP:  cpu time    2.3386: real time    2.3434

 Broyden mixing:
  rms(total) = 0.13772E-05    rms(broyden)= 0.13771E-05
  rms(prec ) = 0.15476E-05
  weight for this iteration     100.00

 eigenvalues of (default mixing * dielectric matrix)
  average eigenvalue GAMMA=   2.5502
  8.5424  7.2468  5.0725  4.2106  2.9517  2.9517  2.1679  2.1679  1.6061  1.6061
  0.8118  1.0459  0.9949  0.9949  0.9827  0.9639  0.9001  0.6856

 Free energy of the ion-electron system (eV)
  ---------------------------------------------------
  -Hartree energ DENC   =        -0.11147816
  -V(xc)+E(xc)   XCENC  =         0.00235101
  PAW double counting   =         0.00361688       -0.00362935
  entropy T*S    EENTRO =         0.00000000
  eigenvalues    EBANDS =        -0.03211379
  ---------------------------------------------------
  free energy    TOTEN  =        -0.14125341 eV

  energy without entropy =       -0.14125341


----------------------------------------- Iteration    3(  21)  ---------------------------------------


   POT+DIJ:  cpu time    0.0700: real time    0.0698
    HAMIL1:  cpu time    0.3319: real time    0.3326
    LRDIAG:  cpu time    0.0510: real time    0.0508
    LRDIIS:  cpu time    1.6058: real time    1.6063
    LRDIAG:  cpu time    0.0460: real time    0.0454
    MIXING:  cpu time    0.0020: real time    0.0017
    --------------------------------------------
      LOOP:  cpu time    2.3186: real time    2.3216

 Broyden mixing:
  rms(total) = 0.61454E-06    rms(broyden)= 0.61450E-06
  rms(prec ) = 0.72180E-06
  weight for this iteration     100.00

 eigenvalues of (default mixing * dielectric matrix)
  average eigenvalue GAMMA=   2.5546
  8.5709  7.3874  5.0507  4.5210  3.0221  3.0221  2.2473  2.2473  1.7536  1.7536
  1.5379  0.8118  1.0541  1.0176  1.0176  0.9732  0.9732  0.8911  0.6855

 Free energy of the ion-electron system (eV)
  ---------------------------------------------------
  -Hartree energ DENC   =        -0.11147826
  -V(xc)+E(xc)   XCENC  =         0.00235099
  PAW double counting   =         0.00361702       -0.00362948
  entropy T*S    EENTRO =         0.00000000
  eigenvalues    EBANDS =        -0.03211341
  ---------------------------------------------------
  free energy    TOTEN  =        -0.14125314 eV

  energy without entropy =       -0.14125314


------------------------ aborting loop because EDIFF is reached ----------------------------------------


 change of polarisation eV/A/(eV/A) component  3 :     0.000     0.000     0.275
 dielectric tensor                  component  3 :     0.000     0.000     1.113


--------------------------------------------------------------------------------------------------------


    FORLOC:  cpu time    0.0010: real time    0.0013
    FORNL :  cpu time    0.1200: real time    0.1194
    STRESS:  cpu time    1.7757: real time    1.7772
    FORCOR:  cpu time    0.0280: real time    0.0277
    OFIELD:  cpu time    0.0000: real time    0.0002

  Hirshfeld charges:
            ion         q(e)     
   ------------------------------
      1     W           0.353
      2     S          -0.177
      3     S          -0.177

  Tkatchenko/Scheffler method for vdW energy calculation
  ---------------------------------------------------------------------------------------------

  Parameters of vdW forcefield:
            C6ts              R0ts           ALPHAts        RELVOL
            (au)              (au)            (au)                
   ---------------------------------------------------------------
   W         865.216          4.096         71.761          1.010
   S         132.585          3.848         19.496          0.995
   S         132.585          3.848         19.496          0.995
  Edisp (eV):   -0.56142
    FORVDW:  cpu time    0.1170: real time    0.1173
    FORLOC:  cpu time    0.0000: real time    0.0013
    FORNL :  cpu time    0.1210: real time    0.1194
    STRESS:  cpu time    1.7807: real time    1.7821
    FORCOR:  cpu time    0.0280: real time    0.0275
    OFIELD:  cpu time    0.0000: real time    0.0002

  Hirshfeld charges:
            ion         q(e)     
   ------------------------------
      1     W           0.353
      2     S          -0.177
      3     S          -0.177

  Tkatchenko/Scheffler method for vdW energy calculation
  ---------------------------------------------------------------------------------------------

  Parameters of vdW forcefield:
            C6ts              R0ts           ALPHAts        RELVOL
            (au)              (au)            (au)                
   ---------------------------------------------------------------
   W         865.216          4.096         71.761          1.010
   S         132.585          3.848         19.496          0.995
   S         132.585          3.848         19.496          0.995
  Edisp (eV):   -0.56142
    FORVDW:  cpu time    0.1170: real time    0.1175
    FORNLD:  cpu time    1.1808: real time    1.1804

 PIEZOELECTRIC TENSOR FIELD DIRECTION 3  (e Angst)
 -----------------------------------------------------------------------------
    -0.00003 -0.00000  0.00000           (  0.00000 -0.00000  0.00000)
    -0.00000 -0.00003  0.00000           (  0.00000  0.00000 -0.00000)
    -0.00000 -0.00000 -0.00001           ( -0.00000 -0.00000 -0.00000)

 PIEZOELECTRIC TENSOR FIELD DIRECTION 3  (C/m^2)
 -----------------------------------------------------------------------------
    -0.00000 -0.00000  0.00000
    -0.00000 -0.00000  0.00000
    -0.00000 -0.00000 -0.00000


      POSITION         DIRECTION 3           BORN EFFECTIVE CHARGE    (rigid.aug.   ionic)
 -----------------------------------------------------------------------------------------
     -0.00000      0.91970     25.00000     0.00000 -0.00000  0.00083 (  1.96484 14.00000)
      1.59297      1.83941     26.57280     0.00000  0.00000  0.02704 (  0.65867  6.00000)
      1.59297      1.83941     23.42720    -0.00000  0.00000  0.02704 (  0.65867  6.00000)
 -----------------------------------------------------------------------------------------
    total drift (improves with k-points):   0.00000  0.00000  0.05490




--------------------------------------------------------------------------------------------------------


  LATTYP: Found a hexagonal cell.
 ALAT       =     3.1859459497
 C/A-ratio  =    15.6939260082
  
  Lattice vectors:
  
 A1 = (   3.1859459497,   0.0000000000,   0.0000000000)
 A2 = (  -1.5929729748,   2.7591101275,   0.0000000000)
 A3 = (   0.0000000000,   0.0000000000,  50.0000000000)


Analysis of symmetry for initial positions (statically):
=====================================================================
 Subroutine PRICEL returns:
 Original cell was already a primitive cell.
 

 Routine SETGRP: Setting up the symmetry group for a 
 hexagonal supercell.


 Subroutine GETGRP returns: Found 12 space group operations
 (whereof  4 operations were pure point group operations)
 out of a pool of 24 trial point group operations.


The static configuration has the point symmetry C_2v.
 The point group associated with its full space group is D_3h.


Analysis of symmetry for dynamics (positions and initial velocities):
=====================================================================
 Subroutine PRICEL returns:
 Original cell was already a primitive cell.
 

 Routine SETGRP: Setting up the symmetry group for a 
 hexagonal supercell.


 Subroutine GETGRP returns: Found 12 space group operations
 (whereof  4 operations were pure point group operations)
 out of a pool of 24 trial point group operations.


The dynamic configuration has the point symmetry C_2v.
 The point group associated with its full space group is D_3h.


 Subroutine INISYM returns: Found 12 space group operations
 (whereof  4 operations are pure point group operations),
 and found     1 'primitive' translations



 MACROSCOPIC STATIC DIELECTRIC TENSOR (including local field effects in DFT)
 ------------------------------------------------------
           2.573105    -0.000000     0.000000
          -0.000000     2.573105     0.000000
           0.000000     0.000000     1.113395
 ------------------------------------------------------



--------------------------------------------------------------------------------------------------------


  LATTYP: Found a hexagonal cell.
 ALAT       =     3.1859459497
 C/A-ratio  =    15.6939260082
  
  Lattice vectors:
  
 A1 = (   3.1859459497,   0.0000000000,   0.0000000000)
 A2 = (  -1.5929729748,   2.7591101275,   0.0000000000)
 A3 = (   0.0000000000,   0.0000000000,  50.0000000000)


Analysis of symmetry for initial positions (statically):
=====================================================================
 Subroutine PRICEL returns:
 Original cell was already a primitive cell.
 

 Routine SETGRP: Setting up the symmetry group for a 
 hexagonal supercell.


 Subroutine GETGRP returns: Found 12 space group operations
 (whereof  4 operations were pure point group operations)
 out of a pool of 24 trial point group operations.


The static configuration has the point symmetry C_2v.
 The point group associated with its full space group is D_3h.


Analysis of symmetry for dynamics (positions and initial velocities):
=====================================================================
 Subroutine PRICEL returns:
 Original cell was already a primitive cell.
 

 Routine SETGRP: Setting up the symmetry group for a 
 hexagonal supercell.


 Subroutine GETGRP returns: Found 12 space group operations
 (whereof  4 operations were pure point group operations)
 out of a pool of 24 trial point group operations.


The dynamic configuration has the point symmetry C_2v.
 The point group associated with its full space group is D_3h.


 Subroutine INISYM returns: Found 12 space group operations
 (whereof  4 operations are pure point group operations),
 and found     1 'primitive' translations



--------------------------------------------------------------------------------------------------------




 MACROSCOPIC STATIC DIELECTRIC TENSOR (including local field effects in DFT)
 ------------------------------------------------------
           2.573105    -0.000000     0.000000
          -0.000000     2.573105     0.000000
           0.000000     0.000000     1.113395
 ------------------------------------------------------


 PIEZOELECTRIC TENSOR  for field in x, y, z        (e  Angst)
          XX          YY          ZZ          XY          YZ          ZX
  --------------------------------------------------------------------------------
  x    -0.00236     0.00199    -0.00017    -1.10090     0.00000     0.00000
  y    -1.10314     1.10405     0.00056     0.00000     0.00000     0.00000
  z    -0.00003    -0.00003    -0.00001    -0.00000    -0.00000     0.00000

 PIEZOELECTRIC TENSOR  for field in x, y, z        (C/m^2)
          XX          YY          ZZ          XY          YZ          ZX
  --------------------------------------------------------------------------------
  x     0.00000     0.00000     0.00000    -0.04018     0.00000     0.00000
  y    -0.04018     0.04018    -0.00000     0.00000     0.00000     0.00000
  z     0.00000     0.00000     0.00000    -0.00000    -0.00000    -0.00000
 
 BORN EFFECTIVE CHARGES (in e, cummulative output)
 -------------------------------------------------
 ion    1
    1    -0.42956    -0.00077     0.00000
    2     0.00000    -0.43036     0.00000
    3     0.00000    -0.00000     0.00083
 ion    2
    1     0.24672    -0.00026    -0.00011
    2     0.00000     0.24711     0.00030
    3     0.00000     0.00000     0.02704
 ion    3
    1     0.24672    -0.00026     0.00011
    2     0.00000     0.24711    -0.00030
    3    -0.00000     0.00000     0.02704


--------------------------------------------------------------------------------------------------------


 writing wavefunctions
     LOOP+:  cpu time  494.1429: real time  495.3626
    4ORBIT:  cpu time    0.0000: real time    0.0000
 BZINTS: Fermi energy: -3.991399; 26.000000 electrons
         Band energy:-582.130824;  BLOECHL correction:  0.000000

 total amount of memory used by VASP on root node   131015. kBytes
========================================================================

   base      :      30000. kBytes
   nonl-proj :      88193. kBytes
   fftplans  :       1943. kBytes
   grid      :       7351. kBytes
   one-center:         97. kBytes
   wavefun   :       3431. kBytes
 
  
  
 General timing and accounting informations for this job:
 ========================================================
  
                  Total CPU time used (sec):      495.935
                            User time (sec):      483.717
                          System time (sec):       12.217
                         Elapsed time (sec):      498.472
  
                   Maximum memory used (kb):      570448.
                   Average memory used (kb):           0.
  
                          Minor page faults:      2954627
                          Major page faults:            8
                 Voluntary context switches:         2915
