  15  15   0   0
  0.3179989E+02  0.3319007E-09  0.3319007E-09  0.5000000E-08  0.5000000E-15
  1.000000000000000E-004
  CAR 
 unknown system                          
     10.84877836    -75.88530030  301      2.53676249      1.00000000
    -75.885  0.0000E+00  0.0000E+00
    -75.596  0.0000E+00  0.0000E+00
    -75.307  0.0000E+00  0.0000E+00
    -75.018  0.0000E+00  0.0000E+00
    -74.729  0.0000E+00  0.0000E+00
    -74.440  0.0000E+00  0.0000E+00
    -74.151  0.0000E+00  0.0000E+00
    -73.862  0.0000E+00  0.0000E+00
    -73.572  0.0000E+00  0.0000E+00
    -73.283  0.0000E+00  0.0000E+00
    -72.994  0.0000E+00  0.0000E+00
    -72.705  0.0000E+00  0.0000E+00
    -72.416  0.0000E+00  0.0000E+00
    -72.127  0.0000E+00  0.0000E+00
    -71.838  0.0000E+00  0.1000E+02
    -71.549  0.0000E+00  0.1000E+02
    -71.259  0.0000E+00  0.1000E+02
    -70.970  0.0000E+00  0.1000E+02
    -70.681  0.0000E+00  0.1000E+02
    -70.392  0.0000E+00  0.1000E+02
    -70.103  0.0000E+00  0.1000E+02
    -69.814  0.0000E+00  0.1000E+02
    -69.525  0.0000E+00  0.1000E+02
    -69.236  0.0000E+00  0.1000E+02
    -68.947  0.0000E+00  0.1000E+02
    -68.657  0.0000E+00  0.1000E+02
    -68.368  0.0000E+00  0.1000E+02
    -68.079  0.0000E+00  0.1000E+02
    -67.790  0.0000E+00  0.1000E+02
    -67.501  0.0000E+00  0.1000E+02
    -67.212  0.0000E+00  0.1000E+02
    -66.923  0.0000E+00  0.1000E+02
    -66.634  0.0000E+00  0.1000E+02
    -66.345  0.0000E+00  0.1000E+02
    -66.055  0.0000E+00  0.1000E+02
    -65.766  0.0000E+00  0.1000E+02
    -65.477  0.0000E+00  0.1000E+02
    -65.188  0.0000E+00  0.1000E+02
    -64.899  0.0000E+00  0.1000E+02
    -64.610  0.0000E+00  0.1000E+02
    -64.321  0.0000E+00  0.1000E+02
    -64.032  0.0000E+00  0.1000E+02
    -63.743  0.0000E+00  0.1000E+02
    -63.453  0.0000E+00  0.1000E+02
    -63.164  0.0000E+00  0.1000E+02
    -62.875  0.0000E+00  0.1000E+02
    -62.586  0.0000E+00  0.1000E+02
    -62.297  0.0000E+00  0.1000E+02
    -62.008  0.0000E+00  0.1000E+02
    -61.719  0.0000E+00  0.1000E+02
    -61.430  0.0000E+00  0.1000E+02
    -61.141  0.0000E+00  0.1000E+02
    -60.851  0.0000E+00  0.1000E+02
    -60.562  0.0000E+00  0.1000E+02
    -60.273  0.0000E+00  0.1000E+02
    -59.984  0.0000E+00  0.1000E+02
    -59.695  0.0000E+00  0.1000E+02
    -59.406  0.0000E+00  0.1000E+02
    -59.117  0.0000E+00  0.1000E+02
    -58.828  0.0000E+00  0.1000E+02
    -58.538  0.0000E+00  0.1000E+02
    -58.249  0.0000E+00  0.1000E+02
    -57.960  0.0000E+00  0.1000E+02
    -57.671  0.0000E+00  0.1000E+02
    -57.382  0.0000E+00  0.1000E+02
    -57.093  0.0000E+00  0.1000E+02
    -56.804  0.0000E+00  0.1000E+02
    -56.515  0.0000E+00  0.1000E+02
    -56.226  0.0000E+00  0.1000E+02
    -55.936  0.0000E+00  0.1000E+02
    -55.647  0.0000E+00  0.1000E+02
    -55.358  0.0000E+00  0.1000E+02
    -55.069  0.0000E+00  0.1000E+02
    -54.780  0.0000E+00  0.1000E+02
    -54.491  0.0000E+00  0.1000E+02
    -54.202  0.0000E+00  0.1000E+02
    -53.913  0.0000E+00  0.1000E+02
    -53.624  0.0000E+00  0.1000E+02
    -53.334  0.0000E+00  0.1000E+02
    -53.045  0.0000E+00  0.1000E+02
    -52.756  0.0000E+00  0.1000E+02
    -52.467  0.0000E+00  0.1000E+02
    -52.178  0.0000E+00  0.1000E+02
    -51.889  0.0000E+00  0.1000E+02
    -51.600  0.0000E+00  0.1000E+02
    -51.311  0.0000E+00  0.1000E+02
    -51.022  0.0000E+00  0.1000E+02
    -50.732  0.0000E+00  0.1000E+02
    -50.443  0.0000E+00  0.1000E+02
    -50.154  0.0000E+00  0.1000E+02
    -49.865  0.0000E+00  0.1000E+02
    -49.576  0.0000E+00  0.1000E+02
    -49.287  0.0000E+00  0.1000E+02
    -48.998  0.0000E+00  0.1000E+02
    -48.709  0.0000E+00  0.1000E+02
    -48.420  0.0000E+00  0.1000E+02
    -48.130  0.0000E+00  0.1000E+02
    -47.841  0.0000E+00  0.1000E+02
    -47.552  0.0000E+00  0.1000E+02
    -47.263  0.0000E+00  0.1000E+02
    -46.974  0.0000E+00  0.1000E+02
    -46.685  0.0000E+00  0.1000E+02
    -46.396  0.0000E+00  0.1000E+02
    -46.107  0.0000E+00  0.1000E+02
    -45.817  0.0000E+00  0.1000E+02
    -45.528  0.0000E+00  0.1000E+02
    -45.239  0.0000E+00  0.1000E+02
    -44.950  0.0000E+00  0.1000E+02
    -44.661  0.0000E+00  0.1000E+02
    -44.372  0.0000E+00  0.1000E+02
    -44.083  0.0000E+00  0.1000E+02
    -43.794  0.0000E+00  0.1000E+02
    -43.505  0.0000E+00  0.1000E+02
    -43.215  0.0000E+00  0.1000E+02
    -42.926  0.0000E+00  0.1000E+02
    -42.637  0.0000E+00  0.1000E+02
    -42.348  0.0000E+00  0.1000E+02
    -42.059  0.0000E+00  0.1000E+02
    -41.770  0.0000E+00  0.1000E+02
    -41.481  0.0000E+00  0.1000E+02
    -41.192  0.0000E+00  0.1000E+02
    -40.903  0.0000E+00  0.1000E+02
    -40.613  0.0000E+00  0.1000E+02
    -40.324  0.0000E+00  0.1000E+02
    -40.035  0.0000E+00  0.1000E+02
    -39.746  0.0000E+00  0.1000E+02
    -39.457  0.0000E+00  0.1000E+02
    -39.168  0.0000E+00  0.1000E+02
    -38.879  0.0000E+00  0.1000E+02
    -38.590  0.0000E+00  0.1000E+02
    -38.301  0.0000E+00  0.1000E+02
    -38.011  0.0000E+00  0.1000E+02
    -37.722  0.0000E+00  0.1000E+02
    -37.433  0.0000E+00  0.1000E+02
    -37.144  0.0000E+00  0.1000E+02
    -36.855  0.0000E+00  0.1000E+02
    -36.566  0.0000E+00  0.1000E+02
    -36.277  0.0000E+00  0.1000E+02
    -35.988  0.0000E+00  0.4000E+02
    -35.699  0.0000E+00  0.4000E+02
    -35.409  0.0000E+00  0.4000E+02
    -35.120  0.0000E+00  0.4000E+02
    -34.831  0.0000E+00  0.4000E+02
    -34.542  0.0000E+00  0.4000E+02
    -34.253  0.0000E+00  0.4000E+02
    -33.964  0.0000E+00  0.4000E+02
    -33.675  0.0000E+00  0.4000E+02
    -33.386  0.0000E+00  0.4000E+02
    -33.096  0.0000E+00  0.4000E+02
    -32.807  0.0000E+00  0.4000E+02
    -32.518  0.0000E+00  0.4000E+02
    -32.229  0.0000E+00  0.4000E+02
    -31.940  0.0000E+00  0.4000E+02
    -31.651  0.0000E+00  0.4000E+02
    -31.362  0.0000E+00  0.4000E+02
    -31.073  0.0000E+00  0.4000E+02
    -30.784  0.0000E+00  0.4000E+02
    -30.494  0.0000E+00  0.4000E+02
    -30.205  0.0000E+00  0.4000E+02
    -29.916  0.0000E+00  0.4000E+02
    -29.627  0.0000E+00  0.4000E+02
    -29.338  0.0000E+00  0.4000E+02
    -29.049  0.0000E+00  0.4000E+02
    -28.760  0.0000E+00  0.4000E+02
    -28.471  0.0000E+00  0.4000E+02
    -28.182  0.0000E+00  0.4000E+02
    -27.892  0.0000E+00  0.4000E+02
    -27.603  0.0000E+00  0.4000E+02
    -27.314  0.0000E+00  0.4000E+02
    -27.025  0.0000E+00  0.4000E+02
    -26.736  0.0000E+00  0.4000E+02
    -26.447  0.0000E+00  0.4000E+02
    -26.158  0.0000E+00  0.4000E+02
    -25.869  0.0000E+00  0.4000E+02
    -25.580  0.0000E+00  0.4000E+02
    -25.290  0.0000E+00  0.4000E+02
    -25.001  0.0000E+00  0.4000E+02
    -24.712  0.0000E+00  0.4000E+02
    -24.423  0.0000E+00  0.4000E+02
    -24.134  0.0000E+00  0.4000E+02
    -23.845  0.0000E+00  0.4000E+02
    -23.556  0.0000E+00  0.4000E+02
    -23.267  0.0000E+00  0.4000E+02
    -22.978  0.0000E+00  0.4000E+02
    -22.688  0.0000E+00  0.4000E+02
    -22.399  0.0000E+00  0.4000E+02
    -22.110  0.0000E+00  0.4000E+02
    -21.821  0.0000E+00  0.4000E+02
    -21.532  0.0000E+00  0.4000E+02
    -21.243  0.0000E+00  0.4000E+02
    -20.954  0.0000E+00  0.4000E+02
    -20.665  0.0000E+00  0.4000E+02
    -20.375  0.0000E+00  0.4000E+02
    -20.086  0.0000E+00  0.4000E+02
    -19.797  0.0000E+00  0.4000E+02
    -19.508  0.0000E+00  0.4000E+02
    -19.219  0.0000E+00  0.4000E+02
    -18.930  0.0000E+00  0.4000E+02
    -18.641  0.0000E+00  0.4000E+02
    -18.352  0.0000E+00  0.4000E+02
    -18.063  0.0000E+00  0.4000E+02
    -17.773  0.0000E+00  0.4000E+02
    -17.484  0.0000E+00  0.4000E+02
    -17.195  0.0000E+00  0.4000E+02
    -16.906  0.0000E+00  0.4000E+02
    -16.617  0.0000E+00  0.4000E+02
    -16.328  0.0000E+00  0.4000E+02
    -16.039  0.0000E+00  0.4000E+02
    -15.750  0.0000E+00  0.4000E+02
    -15.461  0.0000E+00  0.4000E+02
    -15.171  0.0000E+00  0.4000E+02
    -14.882  0.0000E+00  0.4000E+02
    -14.593  0.0000E+00  0.4000E+02
    -14.304  0.0000E+00  0.4000E+02
    -14.015  0.0000E+00  0.4000E+02
    -13.726  0.0000E+00  0.4000E+02
    -13.437  0.0000E+00  0.4000E+02
    -13.148  0.0000E+00  0.4000E+02
    -12.859  0.0000E+00  0.4000E+02
    -12.569  0.1036E+01  0.4008E+02
    -12.280  0.2629E+01  0.4072E+02
    -11.991  0.2890E+01  0.4152E+02
    -11.702  0.3195E+01  0.4240E+02
    -11.413  0.5735E+01  0.4349E+02
    -11.124  0.9777E+01  0.4556E+02
    -10.835  0.1349E+02  0.4884E+02
    -10.546  0.1876E+02  0.5400E+02
    -10.257  0.1008E+02  0.5979E+02
     -9.967  0.0000E+00  0.6000E+02
     -9.678  0.0000E+00  0.6000E+02
     -9.389  0.0000E+00  0.6000E+02
     -9.100  0.0000E+00  0.6000E+02
     -8.811  0.0000E+00  0.6000E+02
     -8.522  0.0000E+00  0.6000E+02
     -8.233  0.0000E+00  0.6000E+02
     -7.944  0.0000E+00  0.6000E+02
     -7.654  0.0000E+00  0.6000E+02
     -7.365  0.0000E+00  0.6000E+02
     -7.076  0.0000E+00  0.6000E+02
     -6.787  0.0000E+00  0.6000E+02
     -6.498  0.0000E+00  0.6000E+02
     -6.209  0.0000E+00  0.6000E+02
     -5.920  0.0000E+00  0.6000E+02
     -5.631  0.0000E+00  0.6000E+02
     -5.342  0.0000E+00  0.6000E+02
     -5.052  0.0000E+00  0.6000E+02
     -4.763  0.0000E+00  0.6000E+02
     -4.474  0.2896E+00  0.6000E+02
     -4.185  0.2226E+01  0.6023E+02
     -3.896  0.5808E+01  0.6145E+02
     -3.607  0.7618E+01  0.6336E+02
     -3.318  0.1464E+02  0.6634E+02
     -3.029  0.1222E+02  0.6942E+02
     -2.740  0.9456E+01  0.7334E+02
     -2.450  0.7881E+01  0.7599E+02
     -2.161  0.1835E+02  0.7828E+02
     -1.872  0.1443E+02  0.8253E+02
     -1.583  0.6512E+01  0.8610E+02
     -1.294  0.1005E+02  0.8836E+02
     -1.005  0.1539E+02  0.9173E+02
     -0.716  0.1156E+02  0.9648E+02
     -0.427  0.7786E+01  0.9913E+02
     -0.138  0.1764E+02  0.1015E+03
      0.152  0.1745E+02  0.1073E+03
      0.441  0.1212E+02  0.1126E+03
      0.730  0.1237E+02  0.1164E+03
      1.019  0.5924E+01  0.1193E+03
      1.308  0.1601E+02  0.1219E+03
      1.597  0.1020E+02  0.1267E+03
      1.886  0.5913E+01  0.1288E+03
      2.175  0.1713E+01  0.1298E+03
      2.464  0.0000E+00  0.1300E+03
      2.754  0.0000E+00  0.1300E+03
      3.043  0.0000E+00  0.1300E+03
      3.332  0.0000E+00  0.1300E+03
      3.621  0.1885E+01  0.1302E+03
      3.910  0.9294E+01  0.1318E+03
      4.199  0.1007E+02  0.1348E+03
      4.488  0.3976E+02  0.1401E+03
      4.777  0.2471E+02  0.1469E+03
      5.067  0.1107E+02  0.1529E+03
      5.356  0.1122E+02  0.1562E+03
      5.645  0.6188E+01  0.1592E+03
      5.934  0.5372E+01  0.1610E+03
      6.223  0.1047E+02  0.1640E+03
      6.512  0.6247E+01  0.1666E+03
      6.801  0.2213E+01  0.1677E+03
      7.090  0.0000E+00  0.1680E+03
      7.379  0.0000E+00  0.1680E+03
      7.669  0.0000E+00  0.1680E+03
      7.958  0.0000E+00  0.1680E+03
      8.247  0.0000E+00  0.1680E+03
      8.536  0.0000E+00  0.1680E+03
      8.825  0.0000E+00  0.1680E+03
      9.114  0.0000E+00  0.1680E+03
      9.403  0.0000E+00  0.1680E+03
      9.692  0.0000E+00  0.1680E+03
      9.981  0.0000E+00  0.1680E+03
     10.271  0.0000E+00  0.1680E+03
     10.560  0.0000E+00  0.1680E+03
     10.849  0.0000E+00  0.1680E+03
