       N       E                     dE             d eps       ncg     rms          rms(c)
DAV:   1     0.922316526652E+03    0.92232E+03   -0.56028E+04  7700   0.925E+02
DAV:   2    -0.628680382563E+02   -0.98518E+03   -0.97266E+03  8288   0.288E+02
DAV:   3    -0.128234668526E+03   -0.65367E+02   -0.65000E+02  8652   0.776E+01
DAV:   4    -0.129602477685E+03   -0.13678E+01   -0.13646E+01  9016   0.108E+01
DAV:   5    -0.129625270500E+03   -0.22793E-01   -0.22782E-01  7980   0.128E+00    0.172E+02
DAV:   6    -0.119876746309E+03    0.97485E+01   -0.60023E+01  7560   0.190E+01    0.150E+02
DAV:   7    -0.144082570727E+03   -0.24206E+02   -0.16294E+02  8344   0.309E+01    0.160E+02
DAV:   8    -0.117448987151E+03    0.26634E+02   -0.99385E+01  7840   0.233E+01    0.430E+00
DAV:   9    -0.118261305868E+03   -0.81232E+00   -0.87771E+00  8008   0.629E+00    0.375E+00
DAV:  10    -0.118266675998E+03   -0.53701E-02   -0.15030E-01  8624   0.907E-01    0.282E+00
DAV:  11    -0.118232171443E+03    0.34505E-01   -0.55679E-02  8568   0.666E-01    0.419E+00
DAV:  12    -0.118218620907E+03    0.13551E-01   -0.40979E-02  7924   0.562E-01    0.350E+00
DAV:  13    -0.118218887860E+03   -0.26695E-03   -0.54282E-03  8232   0.176E-01    0.196E+00
DAV:  14    -0.118218188132E+03    0.69973E-03   -0.71402E-04  7868   0.616E-02    0.142E+00
DAV:  15    -0.118217641603E+03    0.54653E-03   -0.10544E-03  8204   0.683E-02    0.521E-01
DAV:  16    -0.118217563745E+03    0.77859E-04   -0.29228E-04  8232   0.348E-02    0.842E-02
DAV:  17    -0.118217604120E+03   -0.40376E-04   -0.74389E-05  8456   0.207E-02    0.317E-02
DAV:  18    -0.118217670536E+03   -0.66416E-04   -0.20603E-05  8008   0.112E-02    0.387E-02
DAV:  19    -0.118217711306E+03   -0.40770E-04   -0.25178E-06  8288   0.425E-03    0.456E-02
DAV:  20    -0.118217795169E+03   -0.83863E-04   -0.73157E-06  8092   0.543E-03    0.122E-02
DAV:  21    -0.118217822953E+03   -0.27784E-04   -0.21899E-06  7756   0.287E-03    0.502E-03
DAV:  22    -0.118217834475E+03   -0.11523E-04   -0.26034E-07  8400   0.121E-03    0.470E-03
DAV:  23    -0.118217847389E+03   -0.12914E-04   -0.21271E-07  8148   0.113E-03    0.194E-03
DAV:  24    -0.118217855986E+03   -0.85970E-05   -0.14661E-07  8708   0.946E-04    0.572E-03
DAV:  25    -0.118217858512E+03   -0.25258E-05   -0.28181E-08  6356   0.440E-04    0.309E-03
DAV:  26    -0.118217859969E+03   -0.14573E-05   -0.25372E-08  6748   0.420E-04    0.374E-04
DAV:  27    -0.118217860141E+03   -0.17228E-06   -0.25759E-09  5824   0.140E-04    0.229E-04
DAV:  28    -0.118217860242E+03   -0.10063E-06   -0.23871E-09  6160   0.102E-04    0.262E-04
DAV:  29    -0.118217860279E+03   -0.36556E-07   -0.39156E-10  6048   0.417E-05    0.156E-04
DAV:  30    -0.118217860323E+03   -0.44205E-07   -0.56295E-10  5992   0.500E-05    0.541E-05
DAV:  31    -0.118217860339E+03   -0.16609E-07   -0.21981E-10  5992   0.306E-05    0.444E-05
DAV:  32    -0.118217860343E+03   -0.38563E-08   -0.34128E-11  5992   0.244E-05
   1 F= -.12252652E+03 E0= -.12252652E+03  d E =0.000000E+00
 Linear response reoptimize wavefunctions
DAV:   1    -0.118217860347E+03    0.43087E+01   -0.12875E-10  6076   0.419E-05
DAV:   2    -0.118217860347E+03    0.29104E-10    0.25889E-11  5544   0.134E-05
 Linear response G [H, r] |phi>, progress :
  Direction:   1
       N       E                     dE             d eps       ncg     rms
RMM:   1    -0.612605208540E+03   -0.61261E+03    0.22988E+03 14155   0.147E+02
RMM:   2    -0.581491741027E+03    0.31113E+02   -0.30487E+02 12880   0.331E+01
RMM:   3    -0.584365920124E+03   -0.28742E+01   -0.22959E+01 13611   0.786E+00
RMM:   4    -0.584682788256E+03   -0.31687E+00   -0.19179E+00 14765   0.183E+00
RMM:   5    -0.584695997342E+03   -0.13209E-01   -0.26148E-01 15435   0.548E-01
RMM:   6    -0.584700065024E+03   -0.40677E-02   -0.88590E-02 16132   0.176E-01
RMM:   7    -0.584699977072E+03    0.87952E-04   -0.65010E-02 16481   0.632E-02
RMM:   8    -0.584699894435E+03    0.82637E-04   -0.60809E-02 16889   0.262E-02
RMM:   9    -0.584700080152E+03   -0.18572E-03   -0.62294E-02 17232   0.151E-02
RMM:  10    -0.584699959731E+03    0.12042E-03   -0.61031E-02 17305   0.118E-02
RMM:  11    -0.584700014340E+03   -0.54609E-04   -0.61570E-02 17125   0.110E-02
RMM:  12    -0.584699959388E+03    0.54952E-04   -0.61019E-02 16930   0.108E-02
 Linear response G [H, r] |phi>, progress :
  Direction:   2
       N       E                     dE             d eps       ncg     rms
RMM:   1    -0.626342211229E+03   -0.62634E+03    0.20165E+03 14191   0.147E+02
RMM:   2    -0.612600487882E+03    0.13742E+02   -0.31445E+02 12698   0.327E+01
RMM:   3    -0.615970176304E+03   -0.33697E+01   -0.22936E+01 13639   0.754E+00
RMM:   4    -0.616285592479E+03   -0.31542E+00   -0.20081E+00 14758   0.179E+00
RMM:   5    -0.616299206722E+03   -0.13614E-01   -0.19829E-01 15322   0.531E-01
RMM:   6    -0.616304201585E+03   -0.49949E-02   -0.42932E-02 16059   0.176E-01
RMM:   7    -0.616304169555E+03    0.32030E-04   -0.15309E-02 16430   0.632E-02
RMM:   8    -0.616304633196E+03   -0.46364E-03   -0.16182E-02 16785   0.251E-02
RMM:   9    -0.616304432101E+03    0.20110E-03   -0.13680E-02 17122   0.129E-02
RMM:  10    -0.616304418800E+03    0.13301E-04   -0.13476E-02 17182   0.909E-03
RMM:  11    -0.616304409379E+03    0.94209E-05   -0.13370E-02 16997   0.806E-03
RMM:  12    -0.616304436500E+03   -0.27121E-04   -0.13641E-02 16825   0.784E-03
RMM:  13    -0.616304403589E+03    0.32910E-04   -0.13311E-02 16683   0.780E-03
 Linear response G [H, r] |phi>, progress :
  Direction:   3
       N       E                     dE             d eps       ncg     rms
RMM:   1    -0.640214729738E+03   -0.64021E+03    0.23647E+03 13897   0.151E+02
RMM:   2    -0.599454074489E+03    0.40761E+02   -0.38333E+02 12576   0.338E+01
RMM:   3    -0.601918298560E+03   -0.24642E+01   -0.28322E+01 13496   0.822E+00
RMM:   4    -0.602358891713E+03   -0.44059E+00   -0.25480E+00 14539   0.199E+00
RMM:   5    -0.602380963317E+03   -0.22072E-01   -0.24519E-01 14957   0.540E-01
RMM:   6    -0.602384660090E+03   -0.36968E-02   -0.37928E-02 15978   0.172E-01
RMM:   7    -0.602385007130E+03   -0.34704E-03   -0.40340E-03 16266   0.564E-02
RMM:   8    -0.602385142354E+03   -0.13522E-03   -0.10849E-03 16825   0.217E-02
RMM:   9    -0.602385141067E+03    0.12871E-05   -0.13872E-04 17116   0.101E-02
RMM:  10    -0.602385148792E+03   -0.77256E-05   -0.10409E-04 17082   0.676E-03
RMM:  11    -0.602385147612E+03    0.11798E-05   -0.61740E-05 16801   0.590E-03
RMM:  12    -0.602385148617E+03   -0.10047E-05   -0.67872E-05 16691   0.571E-03
RMM:  13    -0.602385147641E+03    0.97560E-06   -0.56848E-05 16598   0.566E-03
 Linear response to external field (no local field effect), progress :
  Direction:   1
       N       E                     dE             d eps       ncg     rms          rms(c)
RMM:   1    -0.106003893144E+02   -0.10600E+02   -0.67346E+01 16058   0.639E+00
RMM:   2    -0.130754642469E+02   -0.24751E+01   -0.73490E-01 11687   0.137E+00
RMM:   3    -0.131032140539E+02   -0.27750E-01   -0.89808E-02 12635   0.323E-01
RMM:   4    -0.131048299454E+02   -0.16159E-02   -0.72066E-03 13805   0.747E-02
RMM:   5    -0.131048965418E+02   -0.66596E-04   -0.53441E-04 13685   0.199E-02
RMM:   6    -0.131049031813E+02   -0.66395E-05   -0.39298E-05 12953   0.519E-03
RMM:   7    -0.131049038761E+02   -0.69482E-06   -0.50126E-06 12766   0.171E-03
RMM:   8    -0.131049039399E+02   -0.63828E-07   -0.12511E-06 12397   0.624E-04
RMM:   9    -0.131049039481E+02   -0.81104E-08   -0.84110E-07 11466   0.342E-04
RMM:  10    -0.131049039489E+02   -0.88956E-09   -0.76930E-07 10323   0.260E-04
RMM:  11    -0.131049039492E+02   -0.28875E-09   -0.76017E-07  9206   0.240E-04
RMM:  12    -0.131049039497E+02   -0.49093E-09   -0.76243E-07  8580   0.236E-04
RMM:  13    -0.131049039491E+02    0.60560E-09   -0.75676E-07  8467   0.236E-04
 Linear response to external field (no local field effect), progress :
  Direction:   2
       N       E                     dE             d eps       ncg     rms          rms(c)
RMM:   1    -0.108144764086E+02   -0.10814E+02   -0.67184E+01 15670   0.652E+00
RMM:   2    -0.125905137099E+02   -0.17760E+01   -0.72098E-01 11707   0.144E+00
RMM:   3    -0.126157731378E+02   -0.25259E-01   -0.82660E-02 12683   0.340E-01
RMM:   4    -0.126173124088E+02   -0.15393E-02   -0.63872E-03 13763   0.753E-02
RMM:   5    -0.126173879461E+02   -0.75537E-04   -0.53893E-04 13697   0.210E-02
RMM:   6    -0.126173949573E+02   -0.70111E-05   -0.41365E-05 12953   0.560E-03
RMM:   7    -0.126173957327E+02   -0.77547E-06   -0.66602E-06 12809   0.192E-03
RMM:   8    -0.126173958223E+02   -0.89537E-07   -0.15367E-06 12664   0.709E-04
RMM:   9    -0.126173958368E+02   -0.14556E-07   -0.10462E-06 11731   0.387E-04
RMM:  10    -0.126173958389E+02   -0.21073E-08   -0.96162E-07 10483   0.293E-04
RMM:  11    -0.126173958388E+02    0.11758E-09   -0.94909E-07  9462   0.269E-04
RMM:  12    -0.126173958397E+02   -0.89801E-09   -0.95546E-07  8839   0.264E-04
RMM:  13    -0.126173958392E+02    0.48197E-09   -0.95020E-07  8630   0.263E-04
 Linear response to external field (no local field effect), progress :
  Direction:   3
       N       E                     dE             d eps       ncg     rms          rms(c)
RMM:   1    -0.719320760779E+01   -0.71932E+01   -0.36716E+01 15621   0.595E+00
RMM:   2    -0.797149401264E+01   -0.77829E+00   -0.45204E-01 11211   0.120E+00
RMM:   3    -0.798276766114E+01   -0.11274E-01   -0.48431E-02 12519   0.286E-01
RMM:   4    -0.798339420699E+01   -0.62655E-03   -0.28692E-03 13500   0.619E-02
RMM:   5    -0.798342780180E+01   -0.33595E-04   -0.23857E-04 13357   0.173E-02
RMM:   6    -0.798343080147E+01   -0.29997E-05   -0.18833E-05 12841   0.457E-03
RMM:   7    -0.798343113434E+01   -0.33288E-06   -0.25769E-06 12663   0.148E-03
RMM:   8    -0.798343117120E+01   -0.36854E-07   -0.80433E-07 12192   0.564E-04
RMM:   9    -0.798343118492E+01   -0.13724E-07   -0.71747E-07 11158   0.309E-04
RMM:  10    -0.798343118958E+01   -0.46603E-08   -0.73833E-07  9877   0.240E-04
RMM:  11    -0.798343119080E+01   -0.12181E-08   -0.74920E-07  8742   0.223E-04
RMM:  12    -0.798343119143E+01   -0.63523E-09   -0.75301E-07  8190   0.220E-04
 Linear response to external field, progress :
  Direction:   1
       N       E                     dE             d eps       ncg     rms          rms(c)
RMM:   1    -0.107216739721E+02   -0.10722E+02   -0.67407E+01 70041   0.640E+00
RMM:   2    -0.128335811003E+02   -0.21119E+01   -0.73954E-01 51395   0.138E+00    0.617E+00
RMM:   3    -0.124963785343E+02    0.33720E+00   -0.40349E-01 50704   0.187E+00    0.349E+00
RMM:   4    -0.127489288393E+02   -0.25255E+00   -0.32739E-01 50923   0.185E+00    0.881E-01
RMM:   5    -0.128426041426E+02   -0.93675E-01   -0.15599E-02 52633   0.351E-01    0.991E-02
RMM:   6    -0.128505086098E+02   -0.79045E-02   -0.23713E-03 58067   0.750E-02    0.632E-02
RMM:   7    -0.128547722512E+02   -0.42636E-02    0.49905E-04 54606   0.371E-02    0.166E-02
RMM:   8    -0.128573077304E+02   -0.25355E-02   -0.53149E-04 57625   0.117E-02    0.608E-03
RMM:   9    -0.128577812086E+02   -0.47348E-03    0.75085E-05 59055   0.450E-03    0.320E-03
RMM:  10    -0.128579630219E+02   -0.18181E-03   -0.20063E-05 55204   0.195E-03    0.788E-04
RMM:  11    -0.128580254275E+02   -0.62406E-04   -0.44365E-06 58666   0.790E-04    0.292E-04
RMM:  12    -0.128580440790E+02   -0.18652E-04   -0.57441E-06 55867   0.416E-04    0.128E-04
RMM:  13    -0.128580452803E+02   -0.12012E-05   -0.23284E-06 53339   0.266E-04    0.710E-05
RMM:  14    -0.128580446188E+02    0.66145E-06   -0.13604E-06 47031   0.239E-04    0.243E-05
RMM:  15    -0.128580444945E+02    0.12431E-06   -0.89326E-07 37257   0.226E-04    0.603E-06
 Linear response to external field, progress :
  Direction:   2
       N       E                     dE             d eps       ncg     rms          rms(c)
RMM:   1    -0.107279727947E+02   -0.10728E+02   -0.67470E+01 38682   0.640E+00
RMM:   2    -0.128338086119E+02   -0.21058E+01   -0.73097E-01 28531   0.140E+00    0.617E+00
RMM:   3    -0.125019082024E+02    0.33190E+00   -0.45207E-01 27995   0.187E+00    0.349E+00
RMM:   4    -0.127584935984E+02   -0.25659E+00   -0.42338E-01 28164   0.184E+00    0.878E-01
RMM:   5    -0.128405666405E+02   -0.82073E-01   -0.11667E-02 29287   0.347E-01    0.109E-01
RMM:   6    -0.128505536528E+02   -0.99870E-02   -0.37832E-03 32164   0.762E-02    0.701E-02
RMM:   7    -0.128538827926E+02   -0.33291E-02    0.13582E-03 31358   0.314E-02    0.248E-02
RMM:   8    -0.128568660318E+02   -0.29832E-02   -0.10954E-03 31062   0.127E-02    0.696E-03
RMM:   9    -0.128577976843E+02   -0.93165E-03    0.92807E-05 31166   0.669E-03    0.299E-03
RMM:  10    -0.128579496881E+02   -0.15200E-03    0.48025E-05 32697   0.206E-03    0.834E-04
RMM:  11    -0.128580385750E+02   -0.88887E-04   -0.76208E-05 31563   0.905E-04    0.671E-04
RMM:  12    -0.128580668707E+02   -0.28296E-04    0.33921E-05 30409   0.530E-04    0.180E-04
RMM:  13    -0.128580700326E+02   -0.31619E-05   -0.82352E-06 31552   0.287E-04    0.811E-05
RMM:  14    -0.128580686644E+02    0.13683E-05    0.19009E-06 25956   0.237E-04    0.277E-05
RMM:  15    -0.128580681697E+02    0.49471E-06    0.11456E-06 21658   0.228E-04    0.133E-05
RMM:  16    -0.128580680118E+02    0.15780E-06    0.13365E-06 20013   0.226E-04    0.797E-06
 Linear response to external field, progress :
  Direction:   3
       N       E                     dE             d eps       ncg     rms          rms(c)
RMM:   1    -0.719320760778E+01   -0.71932E+01   -0.36716E+01 15621   0.595E+00
RMM:   2    -0.797149401264E+01   -0.77829E+00   -0.45204E-01 11211   0.120E+00    0.579E+00
RMM:   3     0.124474850617E+00    0.80960E+01    0.16242E+01 11518   0.477E+00    0.182E+00
RMM:   4    -0.675551595936E+00   -0.80003E+00    0.14954E+01 12175   0.138E+00    0.109E+00
RMM:   5    -0.710072069605E+00   -0.34520E-01    0.12426E+01 11902   0.764E-01    0.653E-01
RMM:   6    -0.404354088677E+00    0.30572E+00    0.14007E+01 12020   0.547E-01    0.318E-01
RMM:   7    -0.417742551054E+00   -0.13388E-01    0.13258E+01 12534   0.314E-01    0.283E-01
RMM:   8    -0.890907790496E+00   -0.47317E+00    0.82776E+00 11979   0.245E-01    0.948E-02
RMM:   9    -0.119875794995E+01   -0.30785E+00    0.51829E+00 12733   0.111E-01    0.578E-02
RMM:  10    -0.140584493959E+01   -0.20709E+00    0.30930E+00 11730   0.638E-02    0.305E-02
RMM:  11    -0.154285853403E+01   -0.13701E+00    0.17284E+00 12278   0.249E-02    0.239E-02
RMM:  12    -0.162263187443E+01   -0.79773E-01    0.94037E-01  9796   0.361E-02    0.893E-03
RMM:  13    -0.166993955119E+01   -0.47308E-01    0.47227E-01 10400   0.153E-02    0.706E-03
RMM:  14    -0.169371082468E+01   -0.23771E-01    0.24105E-01 10275   0.157E-02    0.280E-03
RMM:  15    -0.170557680256E+01   -0.11866E-01    0.12366E-01 10792   0.600E-03    0.191E-03
RMM:  16    -0.171259739140E+01   -0.70206E-02    0.53641E-02 10721   0.388E-03    0.106E-03
RMM:  17    -0.171531990438E+01   -0.27225E-02    0.26536E-02 10133   0.431E-03    0.902E-04
RMM:  18    -0.171647642979E+01   -0.11565E-02    0.14953E-02 10961   0.149E-03    0.508E-04
RMM:  19    -0.171697621422E+01   -0.49978E-03    0.98222E-03 10660   0.126E-03    0.324E-04
RMM:  20    -0.171734628494E+01   -0.37007E-03    0.60351E-03 10822   0.709E-04    0.258E-04
RMM:  21    -0.171763274473E+01   -0.28646E-03    0.31181E-03 10479   0.628E-04    0.146E-04
RMM:  22    -0.171769565424E+01   -0.62910E-04    0.24827E-03 10761   0.288E-04    0.372E-05
RMM:  23    -0.171769387372E+01    0.17805E-05    0.25078E-03 10569   0.129E-04    0.243E-05
RMM:  24    -0.171774240110E+01   -0.48527E-04    0.20266E-03  8965   0.866E-05    0.999E-06
