 vasp.5.4.1 24Jun15 (build Apr 13 2016 13:07:19) complex                        
  
 executed on           IFC91_ompi date 2019.09.14  00:05:51
 running on   28 total cores
 distrk:  each k-point on   28 cores,    1 groups
 distr:  one band on NCORES_PER_BAND=   1 cores,   28 groups


--------------------------------------------------------------------------------------------------------


 INCAR:
 POTCAR:    PAW_PBE W_sv_GW 23Mar2010             
 POTCAR:    PAW_PBE Se_GW 20Mar2012               

 ----------------------------------------------------------------------------- 
|                                                                             |
|           W    W    AA    RRRRR   N    N  II  N    N   GGGG   !!!           |
|           W    W   A  A   R    R  NN   N  II  NN   N  G    G  !!!           |
|           W    W  A    A  R    R  N N  N  II  N N  N  G       !!!           |
|           W WW W  AAAAAA  RRRRR   N  N N  II  N  N N  G  GGG   !            |
|           WW  WW  A    A  R   R   N   NN  II  N   NN  G    G                |
|           W    W  A    A  R    R  N    N  II  N    N   GGGG   !!!           |
|                                                                             |
|      For optimal performance we recommend to set                            |
|        NCORE= 4 - approx SQRT( number of cores)                             |
|      NCORE specifies how many cores store one orbital (NPAR=cpu/NCORE).     |
|      This setting can  greatly improve the performance of VASP for DFT.     |
|      The default, NPAR=number of cores might be grossly inefficient         |
|      on modern multi-core architectures or massively parallel machines.     |
|      Do your own testing !!!!                                               |
|      Unfortunately you need to use the default for GW and RPA calculations. |
|      (for HF NCORE is supported but not extensively tested yet)             |
|                                                                             |
 ----------------------------------------------------------------------------- 

 POTCAR:    PAW_PBE W_sv_GW 23Mar2010             
   VRHFIN =W: 5p6s5d                                                            
   LEXCH  = PE                                                                  
   EATOM  =  1863.8917 eV,  136.9922 Ry                                         
                                                                                
   TITEL  = PAW_PBE W_sv_GW 23Mar2010                                           
   LULTRA =        F    use ultrasoft PP ?                                      
   IUNSCR =        1    unscreen: 0-lin 1-nonlin 2-no                           
   RPACOR =    1.500    partial core radius                                     
   POMASS =  183.850; ZVAL   =   14.000    mass and valenz                      
   RCORE  =    2.300    outmost cutoff radius                                   
   RWIGS  =    2.600; RWIGS  =    1.376    wigner-seitz radius (au A)           
   ENMAX  =  317.132; ENMIN  =  237.849 eV                                      
   RCLOC  =    1.609    cutoff for local pot                                    
   LCOR   =        T    correct aug charges                                     
   LPAW   =        T    paw PP                                                  
   EAUG   =  807.757                                                            
   DEXC   =    0.000                                                            
   RMAX   =    2.349    core radius for proj-oper                               
   RAUG   =    1.300    factor for augmentation sphere                          
   RDEP   =    2.382    radius for radial grids                                 
   RDEPT  =    1.832    core radius for aug-charge                              
                                                                                
   Atomic configuration                                                         
   14 entries                                                                   
     n  l   j            E        occ.                                          
     1  0  0.50    -69464.1497   2.0000                                         
     2  0  0.50    -11984.7400   2.0000                                         
     2  1  1.50    -10478.3405   6.0000                                         
     3  0  0.50     -2757.5605   2.0000                                         
     3  1  1.50     -2311.6706   6.0000                                         
     3  2  2.50     -1799.5973  10.0000                                         
     4  0  0.50      -566.1609   2.0000                                         
     4  1  1.50      -419.9482   6.0000                                         
     4  2  2.50      -234.8191  10.0000                                         
     4  3  3.50       -29.7363  14.0000                                         
     5  0  0.50       -75.5905   2.0000                                         
     5  1  1.50       -39.9756   6.0000                                         
     5  2  2.50        -2.4479   6.0000                                         
     5  3  2.50        -1.3606   0.0000                                         
   Description                                                                  
     l       E           TYP  RCUT    TYP  RCUT                                 
     0    -75.5905419     23  1.500                                             
     0    -76.9511245     23  1.500                                             
     0    108.8466080     23  1.500                                             
     1    -39.9756040     23  1.800                                             
     1     68.0291300     23  1.800                                             
     2     -2.4478587     23  2.150                                             
     2     -0.0030619     23  2.150                                             
     3      4.0817478     23  2.300                                             
  local pseudopotential read in
  partial core-charges read in
  partial kinetic energy density read in
  kinetic energy density of atom read in
  atomic valenz-charges read in
  non local Contribution for L=           0  read in
    real space projection operators read in
  non local Contribution for L=           0  read in
    real space projection operators read in
  non local Contribution for L=           0  read in
    real space projection operators read in
  non local Contribution for L=           1  read in
    real space projection operators read in
  non local Contribution for L=           1  read in
    real space projection operators read in
  non local Contribution for L=           2  read in
    real space projection operators read in
  non local Contribution for L=           2  read in
    real space projection operators read in
  non local Contribution for L=           3  read in
    real space projection operators read in
    PAW grid and wavefunctions read in
 
   number of l-projection  operators is LMAX  =           8
   number of lm-projection operators is LMMAX =          26
 
 POTCAR:    PAW_PBE Se_GW 20Mar2012               
   VRHFIN =Se: s2p4                                                             
   LEXCH  = PE                                                                  
   EATOM  =   257.1286 eV,   18.8984 Ry                                         
                                                                                
   TITEL  = PAW_PBE Se_GW 20Mar2012                                             
   LULTRA =        F    use ultrasoft PP ?                                      
   IUNSCR =        1    unscreen: 0-lin 1-nonlin 2-no                           
   RPACOR =    1.900    partial core radius                                     
   POMASS =   78.960; ZVAL   =    6.000    mass and valenz                      
   RCORE  =    2.100    outmost cutoff radius                                   
   RWIGS  =    2.200; RWIGS  =    1.164    wigner-seitz radius (au A)           
   ENMAX  =  211.555; ENMIN  =  158.666 eV                                      
   ICORE  =        3    local potential                                         
   LCOR   =        T    correct aug charges                                     
   LPAW   =        T    paw PP                                                  
   EAUG   =  446.842                                                            
   DEXC   =    0.000                                                            
   RMAX   =    2.147    core radius for proj-oper                               
   RAUG   =    1.300    factor for augmentation sphere                          
   RDEP   =    2.177    radius for radial grids                                 
   RDEPT  =    1.928    core radius for aug-charge                              
                                                                                
   Atomic configuration                                                         
   10 entries                                                                   
     n  l   j            E        occ.                                          
     1  0  0.50    -12503.4788   2.0000                                         
     2  0  0.50     -1606.9547   2.0000                                         
     2  1  1.50     -1413.3140   6.0000                                         
     3  0  0.50      -213.4885   2.0000                                         
     3  1  1.50      -152.9538   6.0000                                         
     3  2  2.50       -53.1221  10.0000                                         
     4  0  0.50       -17.2865   2.0000                                         
     4  1  0.50        -6.5110   4.0000                                         
     4  2  2.50        -6.8029   0.0000                                         
     4  3  2.50        -6.8029   0.0000                                         
   Description                                                                  
     l       E           TYP  RCUT    TYP  RCUT                                 
     0    -17.2865391     23  2.100                                             
     0     68.0291300     23  2.100                                             
     1     -6.5110285     23  2.100                                             
     1     81.6349560     23  2.100                                             
     2     -6.8029130     23  2.100                                             
     3     -1.3605826      7  2.100                                             
  local pseudopotential read in
  partial core-charges read in
  partial kinetic energy density read in
  kinetic energy density of atom read in
  atomic valenz-charges read in
  non local Contribution for L=           0  read in
    real space projection operators read in
  non local Contribution for L=           0  read in
    real space projection operators read in
  non local Contribution for L=           1  read in
    real space projection operators read in
  non local Contribution for L=           1  read in
    real space projection operators read in
  non local Contribution for L=           2  read in
    real space projection operators read in
    PAW grid and wavefunctions read in
 
   number of l-projection  operators is LMAX  =           5
   number of lm-projection operators is LMMAX =          13
 
  PAW_PBE W_sv_GW 23Mar2010             :
 energy of atom  1       EATOM=-1863.8917
 kinetic energy error for atom=    0.2291 (will be added to EATOM!!)
  PAW_PBE Se_GW 20Mar2012               :
 energy of atom  2       EATOM= -257.1286
 kinetic energy error for atom=    0.0039 (will be added to EATOM!!)
 
 
 POSCAR:  W Se                                   
  positions in cartesian coordinates
  No initial velocities read in
 exchange correlation table for  LEXCH =        8
   RHO(1)=    0.500       N(1)  =     2000
   RHO(2)=  100.500       N(2)  =     4000
 


--------------------------------------------------------------------------------------------------------


 ion  position               nearest neighbor table
   1  0.167  0.333  0.240-   6 2.55   7 2.55   6 2.55   7 2.55   6 2.55   7 2.55
   2  0.833  0.667  0.370-   9 2.55   9 2.55   9 2.55   8 2.55   8 2.55   8 2.55
   3  0.167  0.333  0.500-  10 2.55  11 2.55  10 2.55  11 2.55  10 2.55  11 2.55
   4  0.833  0.667  0.630-  12 2.55  12 2.55  12 2.55  13 2.55  13 2.55  13 2.55
   5  0.167  0.333  0.760-  14 2.55  15 2.55  14 2.55  15 2.55  14 2.55  15 2.55
   6  0.833  0.667  0.274-   1 2.55   1 2.55   1 2.55
   7  0.833  0.667  0.207-   1 2.55   1 2.55   1 2.55
   8  0.167  0.333  0.404-   2 2.55   2 2.55   2 2.55
   9  0.167  0.333  0.337-   2 2.55   2 2.55   2 2.55
  10  0.833  0.667  0.534-   3 2.55   3 2.55   3 2.55
  11  0.833  0.667  0.466-   3 2.55   3 2.55   3 2.55
  12  0.167  0.333  0.663-   4 2.55   4 2.55   4 2.55
  13  0.167  0.333  0.596-   4 2.55   4 2.55   4 2.55
  14  0.833  0.667  0.793-   5 2.55   5 2.55   5 2.55
  15  0.833  0.667  0.726-   5 2.55   5 2.55   5 2.55
 
  LATTYP: Found a hexagonal cell.
 ALAT       =     3.3190066245
 C/A-ratio  =    15.0647484797
  
  Lattice vectors:
  
 A1 = (   3.3190066245,   0.0000000000,   0.0000000000)
 A2 = (  -1.6595033122,   2.8743440521,   0.0000000000)
 A3 = (   0.0000000000,   0.0000000000,  50.0000000000)


Analysis of symmetry for initial positions (statically):
=====================================================================
 Subroutine PRICEL returns:
 Original cell was already a primitive cell.
 

 Routine SETGRP: Setting up the symmetry group for a 
 hexagonal supercell.


 Subroutine GETGRP returns: Found 12 space group operations
 (whereof  4 operations were pure point group operations)
 out of a pool of 24 trial point group operations.


The static configuration has the point symmetry C_2v.
 The point group associated with its full space group is D_3h.


Analysis of symmetry for dynamics (positions and initial velocities):
=====================================================================
 Subroutine PRICEL returns:
 Original cell was already a primitive cell.
 

 Routine SETGRP: Setting up the symmetry group for a 
 hexagonal supercell.


 Subroutine GETGRP returns: Found 12 space group operations
 (whereof  4 operations were pure point group operations)
 out of a pool of 24 trial point group operations.


The dynamic configuration has the point symmetry C_2v.
 The point group associated with its full space group is D_3h.


 Subroutine INISYM returns: Found 12 space group operations
 (whereof  4 operations are pure point group operations),
 and found     1 'primitive' translations

 
 
 KPOINTS: KPOINTS created by Atomic Simulation Env

Automatic generation of k-mesh.
Space group operators:
 irot       det(A)        alpha          n_x          n_y          n_z        tau_x        tau_y        tau_z
    1     1.000000     0.000000     1.000000     0.000000     0.000000     0.000000     0.000000     0.000000
    2    -1.000000   179.999999     0.000000     0.000000     1.000000     0.000000     0.000000     0.000000
    3    -1.000000   180.000000     1.000000     0.000000     0.000000     0.000000     0.000000     0.000000
    4     1.000000   180.000000     0.000000     1.000000     0.000000     0.000000     0.000000     0.000000
    5    -1.000000    60.000000     0.000000     0.000000    -1.000000     0.000000     0.500000     0.000000
    6     1.000000   120.000000     0.000000     0.000000    -1.000000     0.500000     0.500000     0.000000
    7     1.000000   120.000000     0.000000     0.000000     1.000000     0.000000     0.500000     0.000000
    8    -1.000000    60.000000     0.000000     0.000000     1.000000     0.500000     0.500000     0.000000
    9     1.000000   180.000000     0.866025    -0.500000     0.000000     0.500000     0.500000     0.000000
   10    -1.000000   180.000000     0.500000    -0.866025     0.000000    -0.000000     0.500000     0.000000
   11    -1.000000   180.000000    -0.500000    -0.866025     0.000000     0.500000     0.500000     0.000000
   12     1.000000   180.000000     0.866025     0.500000     0.000000    -0.000000     0.500000     0.000000
 
 Subroutine IBZKPT returns following result:
 ===========================================
 
 Found     37 irreducible k-points:
 
 Following reciprocal coordinates:
            Coordinates               Weight
  0.000000  0.000000  0.000000      1.000000
  0.055556  0.000000  0.000000      6.000000
  0.111111  0.000000  0.000000      6.000000
  0.166667  0.000000  0.000000      6.000000
  0.222222  0.000000  0.000000      6.000000
  0.277778  0.000000  0.000000      6.000000
  0.333333  0.000000  0.000000      6.000000
  0.388889  0.000000  0.000000      6.000000
  0.444444  0.000000  0.000000      6.000000
  0.500000  0.000000  0.000000      3.000000
  0.055556  0.055556  0.000000      6.000000
  0.111111  0.055556  0.000000     12.000000
  0.166667  0.055556  0.000000     12.000000
  0.222222  0.055556  0.000000     12.000000
  0.277778  0.055556  0.000000     12.000000
  0.333333  0.055556  0.000000     12.000000
  0.388889  0.055556  0.000000     12.000000
  0.444444  0.055556  0.000000     12.000000
  0.111111  0.111111  0.000000      6.000000
  0.166667  0.111111  0.000000     12.000000
  0.222222  0.111111  0.000000     12.000000
  0.277778  0.111111  0.000000     12.000000
  0.333333  0.111111  0.000000     12.000000
  0.388889  0.111111  0.000000     12.000000
  0.444444  0.111111  0.000000      6.000000
  0.166667  0.166667  0.000000      6.000000
  0.222222  0.166667  0.000000     12.000000
  0.277778  0.166667  0.000000     12.000000
  0.333333  0.166667  0.000000     12.000000
  0.388889  0.166667  0.000000     12.000000
  0.222222  0.222222  0.000000      6.000000
  0.277778  0.222222  0.000000     12.000000
  0.333333  0.222222  0.000000     12.000000
  0.388889  0.222222  0.000000      6.000000
  0.277778  0.277778  0.000000      6.000000
  0.333333  0.277778  0.000000     12.000000
  0.333333  0.333333  0.000000      2.000000
 
 Following cartesian coordinates:
            Coordinates               Weight
  0.000000  0.000000  0.000000      1.000000
  0.016739  0.009664  0.000000      6.000000
  0.033477  0.019328  0.000000      6.000000
  0.050216  0.028992  0.000000      6.000000
  0.066954  0.038656  0.000000      6.000000
  0.083693  0.048320  0.000000      6.000000
  0.100432  0.057984  0.000000      6.000000
  0.117170  0.067648  0.000000      6.000000
  0.133909  0.077312  0.000000      6.000000
  0.150647  0.086976  0.000000      3.000000
  0.016739  0.028992  0.000000      6.000000
  0.033477  0.038656  0.000000     12.000000
  0.050216  0.048320  0.000000     12.000000
  0.066954  0.057984  0.000000     12.000000
  0.083693  0.067648  0.000000     12.000000
  0.100432  0.077312  0.000000     12.000000
  0.117170  0.086976  0.000000     12.000000
  0.133909  0.096640  0.000000     12.000000
  0.033477  0.057984  0.000000      6.000000
  0.050216  0.067648  0.000000     12.000000
  0.066954  0.077312  0.000000     12.000000
  0.083693  0.086976  0.000000     12.000000
  0.100432  0.096640  0.000000     12.000000
  0.117170  0.106304  0.000000     12.000000
  0.133909  0.115968  0.000000      6.000000
  0.050216  0.086976  0.000000      6.000000
  0.066954  0.096640  0.000000     12.000000
  0.083693  0.106304  0.000000     12.000000
  0.100432  0.115968  0.000000     12.000000
  0.117170  0.125633  0.000000     12.000000
  0.066954  0.115968  0.000000      6.000000
  0.083693  0.125633  0.000000     12.000000
  0.100432  0.135297  0.000000     12.000000
  0.117170  0.144961  0.000000      6.000000
  0.083693  0.144961  0.000000      6.000000
  0.100432  0.154625  0.000000     12.000000
  0.100432  0.173953  0.000000      2.000000
 
 TETIRR: Found    169 inequivalent tetrahedra from     1944
 
 Subroutine IBZKPT_HF returns following result:
 ==============================================
 
 Found    324 k-points in 1st BZ
 the following    324 k-points will be used (e.g. in the exchange kernel)
 Following reciprocal coordinates:   # in IRBZ
  0.000000  0.000000  0.000000    0.00308642   1 t-inv F
  0.055556  0.000000  0.000000    0.00308642   2 t-inv F
  0.111111  0.000000  0.000000    0.00308642   3 t-inv F
  0.166667  0.000000  0.000000    0.00308642   4 t-inv F
  0.222222  0.000000  0.000000    0.00308642   5 t-inv F
  0.277778  0.000000  0.000000    0.00308642   6 t-inv F
  0.333333  0.000000  0.000000    0.00308642   7 t-inv F
  0.388889  0.000000  0.000000    0.00308642   8 t-inv F
  0.444444  0.000000  0.000000    0.00308642   9 t-inv F
  0.500000  0.000000  0.000000    0.00308642  10 t-inv F
  0.055556  0.055556  0.000000    0.00308642  11 t-inv F
  0.111111  0.055556  0.000000    0.00308642  12 t-inv F
  0.166667  0.055556  0.000000    0.00308642  13 t-inv F
  0.222222  0.055556  0.000000    0.00308642  14 t-inv F
  0.277778  0.055556  0.000000    0.00308642  15 t-inv F
  0.333333  0.055556  0.000000    0.00308642  16 t-inv F
  0.388889  0.055556  0.000000    0.00308642  17 t-inv F
  0.444444  0.055556  0.000000    0.00308642  18 t-inv F
  0.111111  0.111111  0.000000    0.00308642  19 t-inv F
  0.166667  0.111111  0.000000    0.00308642  20 t-inv F
  0.222222  0.111111  0.000000    0.00308642  21 t-inv F
  0.277778  0.111111  0.000000    0.00308642  22 t-inv F
  0.333333  0.111111  0.000000    0.00308642  23 t-inv F
  0.388889  0.111111  0.000000    0.00308642  24 t-inv F
  0.444444  0.111111  0.000000    0.00308642  25 t-inv F
  0.166667  0.166667  0.000000    0.00308642  26 t-inv F
  0.222222  0.166667  0.000000    0.00308642  27 t-inv F
  0.277778  0.166667  0.000000    0.00308642  28 t-inv F
  0.333333  0.166667  0.000000    0.00308642  29 t-inv F
  0.388889  0.166667  0.000000    0.00308642  30 t-inv F
  0.222222  0.222222  0.000000    0.00308642  31 t-inv F
  0.277778  0.222222  0.000000    0.00308642  32 t-inv F
  0.333333  0.222222  0.000000    0.00308642  33 t-inv F
  0.388889  0.222222  0.000000    0.00308642  34 t-inv F
  0.277778  0.277778  0.000000    0.00308642  35 t-inv F
  0.333333  0.277778  0.000000    0.00308642  36 t-inv F
  0.333333  0.333333  0.000000    0.00308642  37 t-inv F
 -0.055556  0.055556  0.000000    0.00308642   2 t-inv F
  0.000000 -0.055556 -0.000000    0.00308642   2 t-inv F
 -0.111111  0.111111  0.000000    0.00308642   3 t-inv F
  0.000000 -0.111111 -0.000000    0.00308642   3 t-inv F
 -0.166667  0.166667  0.000000    0.00308642   4 t-inv F
  0.000000 -0.166667 -0.000000    0.00308642   4 t-inv F
 -0.222222  0.222222  0.000000    0.00308642   5 t-inv F
  0.000000 -0.222222 -0.000000    0.00308642   5 t-inv F
 -0.277778  0.277778  0.000000    0.00308642   6 t-inv F
  0.000000 -0.277778 -0.000000    0.00308642   6 t-inv F
 -0.333333  0.333333  0.000000    0.00308642   7 t-inv F
  0.000000 -0.333333 -0.000000    0.00308642   7 t-inv F
 -0.388889  0.388889  0.000000    0.00308642   8 t-inv F
  0.000000 -0.388889 -0.000000    0.00308642   8 t-inv F
 -0.444444  0.444444  0.000000    0.00308642   9 t-inv F
  0.000000 -0.444444 -0.000000    0.00308642   9 t-inv F
 -0.500000  0.500000  0.000000    0.00308642  10 t-inv F
  0.000000 -0.500000 -0.000000    0.00308642  10 t-inv F
 -0.055556  0.111111  0.000000    0.00308642  11 t-inv F
  0.055556 -0.111111 -0.000000    0.00308642  11 t-inv F
 -0.111111  0.055556  0.000000    0.00308642  11 t-inv F
 -0.055556 -0.055556 -0.000000    0.00308642  11 t-inv F
  0.111111 -0.055556  0.000000    0.00308642  11 t-inv F
 -0.111111  0.166667  0.000000    0.00308642  12 t-inv F
  0.055556 -0.166667 -0.000000    0.00308642  12 t-inv F
 -0.166667  0.111111  0.000000    0.00308642  12 t-inv F
 -0.055556 -0.111111 -0.000000    0.00308642  12 t-inv F
  0.166667 -0.055556  0.000000    0.00308642  12 t-inv F
 -0.166667  0.222222  0.000000    0.00308642  13 t-inv F
  0.055556 -0.222222 -0.000000    0.00308642  13 t-inv F
 -0.222222  0.166667  0.000000    0.00308642  13 t-inv F
 -0.055556 -0.166667 -0.000000    0.00308642  13 t-inv F
  0.222222 -0.055556  0.000000    0.00308642  13 t-inv F
 -0.222222  0.277778  0.000000    0.00308642  14 t-inv F
  0.055556 -0.277778 -0.000000    0.00308642  14 t-inv F
 -0.277778  0.222222  0.000000    0.00308642  14 t-inv F
 -0.055556 -0.222222 -0.000000    0.00308642  14 t-inv F
  0.277778 -0.055556  0.000000    0.00308642  14 t-inv F
 -0.277778  0.333333  0.000000    0.00308642  15 t-inv F
  0.055556 -0.333333 -0.000000    0.00308642  15 t-inv F
 -0.333333  0.277778  0.000000    0.00308642  15 t-inv F
 -0.055556 -0.277778 -0.000000    0.00308642  15 t-inv F
  0.333333 -0.055556  0.000000    0.00308642  15 t-inv F
 -0.333333  0.388889  0.000000    0.00308642  16 t-inv F
  0.055556 -0.388889 -0.000000    0.00308642  16 t-inv F
 -0.388889  0.333333  0.000000    0.00308642  16 t-inv F
 -0.055556 -0.333333 -0.000000    0.00308642  16 t-inv F
  0.388889 -0.055556  0.000000    0.00308642  16 t-inv F
 -0.388889  0.444444  0.000000    0.00308642  17 t-inv F
  0.055556 -0.444444 -0.000000    0.00308642  17 t-inv F
 -0.444444  0.388889  0.000000    0.00308642  17 t-inv F
 -0.055556 -0.388889 -0.000000    0.00308642  17 t-inv F
  0.444444 -0.055556  0.000000    0.00308642  17 t-inv F
 -0.444444  0.500000  0.000000    0.00308642  18 t-inv F
  0.055556 -0.500000 -0.000000    0.00308642  18 t-inv F
 -0.500000  0.444444  0.000000    0.00308642  18 t-inv F
 -0.055556 -0.444444 -0.000000    0.00308642  18 t-inv F
  0.500000 -0.055556  0.000000    0.00308642  18 t-inv F
 -0.111111  0.222222  0.000000    0.00308642  19 t-inv F
  0.111111 -0.222222 -0.000000    0.00308642  19 t-inv F
 -0.222222  0.111111  0.000000    0.00308642  19 t-inv F
 -0.111111 -0.111111 -0.000000    0.00308642  19 t-inv F
  0.222222 -0.111111  0.000000    0.00308642  19 t-inv F
 -0.166667  0.277778  0.000000    0.00308642  20 t-inv F
  0.111111 -0.277778 -0.000000    0.00308642  20 t-inv F
 -0.277778  0.166667  0.000000    0.00308642  20 t-inv F
 -0.111111 -0.166667 -0.000000    0.00308642  20 t-inv F
  0.277778 -0.111111  0.000000    0.00308642  20 t-inv F
 -0.222222  0.333333  0.000000    0.00308642  21 t-inv F
  0.111111 -0.333333 -0.000000    0.00308642  21 t-inv F
 -0.333333  0.222222  0.000000    0.00308642  21 t-inv F
 -0.111111 -0.222222 -0.000000    0.00308642  21 t-inv F
  0.333333 -0.111111  0.000000    0.00308642  21 t-inv F
 -0.277778  0.388889  0.000000    0.00308642  22 t-inv F
  0.111111 -0.388889 -0.000000    0.00308642  22 t-inv F
 -0.388889  0.277778  0.000000    0.00308642  22 t-inv F
 -0.111111 -0.277778 -0.000000    0.00308642  22 t-inv F
  0.388889 -0.111111  0.000000    0.00308642  22 t-inv F
 -0.333333  0.444444  0.000000    0.00308642  23 t-inv F
  0.111111 -0.444444 -0.000000    0.00308642  23 t-inv F
 -0.444444  0.333333  0.000000    0.00308642  23 t-inv F
 -0.111111 -0.333333 -0.000000    0.00308642  23 t-inv F
  0.444444 -0.111111  0.000000    0.00308642  23 t-inv F
 -0.388889  0.500000  0.000000    0.00308642  24 t-inv F
  0.111111 -0.500000 -0.000000    0.00308642  24 t-inv F
 -0.500000  0.388889  0.000000    0.00308642  24 t-inv F
 -0.111111 -0.388889 -0.000000    0.00308642  24 t-inv F
  0.500000 -0.111111  0.000000    0.00308642  24 t-inv F
 -0.444444  0.555556  0.000000    0.00308642  25 t-inv F
  0.111111 -0.555556 -0.000000    0.00308642  25 t-inv F
 -0.555556  0.444444  0.000000    0.00308642  25 t-inv F
 -0.111111 -0.444444 -0.000000    0.00308642  25 t-inv F
  0.555556 -0.111111  0.000000    0.00308642  25 t-inv F
 -0.166667  0.333333  0.000000    0.00308642  26 t-inv F
  0.166667 -0.333333 -0.000000    0.00308642  26 t-inv F
 -0.333333  0.166667  0.000000    0.00308642  26 t-inv F
 -0.166667 -0.166667 -0.000000    0.00308642  26 t-inv F
  0.333333 -0.166667  0.000000    0.00308642  26 t-inv F
 -0.222222  0.388889  0.000000    0.00308642  27 t-inv F
  0.166667 -0.388889 -0.000000    0.00308642  27 t-inv F
 -0.388889  0.222222  0.000000    0.00308642  27 t-inv F
 -0.166667 -0.222222 -0.000000    0.00308642  27 t-inv F
  0.388889 -0.166667  0.000000    0.00308642  27 t-inv F
 -0.277778  0.444444  0.000000    0.00308642  28 t-inv F
  0.166667 -0.444444 -0.000000    0.00308642  28 t-inv F
 -0.444444  0.277778  0.000000    0.00308642  28 t-inv F
 -0.166667 -0.277778 -0.000000    0.00308642  28 t-inv F
  0.444444 -0.166667  0.000000    0.00308642  28 t-inv F
 -0.333333  0.500000  0.000000    0.00308642  29 t-inv F
  0.166667 -0.500000 -0.000000    0.00308642  29 t-inv F
 -0.500000  0.333333  0.000000    0.00308642  29 t-inv F
 -0.166667 -0.333333 -0.000000    0.00308642  29 t-inv F
  0.500000 -0.166667  0.000000    0.00308642  29 t-inv F
 -0.388889  0.555556  0.000000    0.00308642  30 t-inv F
  0.166667 -0.555556 -0.000000    0.00308642  30 t-inv F
 -0.555556  0.388889  0.000000    0.00308642  30 t-inv F
 -0.166667 -0.388889 -0.000000    0.00308642  30 t-inv F
  0.555556 -0.166667  0.000000    0.00308642  30 t-inv F
 -0.222222  0.444444  0.000000    0.00308642  31 t-inv F
  0.222222 -0.444444 -0.000000    0.00308642  31 t-inv F
 -0.444444  0.222222  0.000000    0.00308642  31 t-inv F
 -0.222222 -0.222222 -0.000000    0.00308642  31 t-inv F
  0.444444 -0.222222  0.000000    0.00308642  31 t-inv F
 -0.277778  0.500000  0.000000    0.00308642  32 t-inv F
  0.222222 -0.500000 -0.000000    0.00308642  32 t-inv F
 -0.500000  0.277778  0.000000    0.00308642  32 t-inv F
 -0.222222 -0.277778 -0.000000    0.00308642  32 t-inv F
  0.500000 -0.222222  0.000000    0.00308642  32 t-inv F
 -0.333333  0.555556  0.000000    0.00308642  33 t-inv F
  0.222222 -0.555556 -0.000000    0.00308642  33 t-inv F
 -0.555556  0.333333  0.000000    0.00308642  33 t-inv F
 -0.222222 -0.333333 -0.000000    0.00308642  33 t-inv F
  0.555556 -0.222222  0.000000    0.00308642  33 t-inv F
 -0.388889  0.611111  0.000000    0.00308642  34 t-inv F
  0.222222 -0.611111 -0.000000    0.00308642  34 t-inv F
 -0.611111  0.388889  0.000000    0.00308642  34 t-inv F
 -0.222222 -0.388889 -0.000000    0.00308642  34 t-inv F
  0.611111 -0.222222  0.000000    0.00308642  34 t-inv F
 -0.277778  0.555556  0.000000    0.00308642  35 t-inv F
  0.277778 -0.555556 -0.000000    0.00308642  35 t-inv F
 -0.555556  0.277778  0.000000    0.00308642  35 t-inv F
 -0.277778 -0.277778 -0.000000    0.00308642  35 t-inv F
  0.555556 -0.277778  0.000000    0.00308642  35 t-inv F
 -0.333333  0.611111  0.000000    0.00308642  36 t-inv F
  0.277778 -0.611111 -0.000000    0.00308642  36 t-inv F
 -0.611111  0.333333  0.000000    0.00308642  36 t-inv F
 -0.277778 -0.333333 -0.000000    0.00308642  36 t-inv F
  0.611111 -0.277778  0.000000    0.00308642  36 t-inv F
 -0.333333  0.666667  0.000000    0.00308642  37 t-inv F
 -0.055556 -0.000000 -0.000000    0.00308642   2 t-inv T
  0.055556 -0.055556 -0.000000    0.00308642   2 t-inv T
 -0.000000  0.055556  0.000000    0.00308642   2 t-inv T
 -0.111111 -0.000000 -0.000000    0.00308642   3 t-inv T
  0.111111 -0.111111 -0.000000    0.00308642   3 t-inv T
 -0.000000  0.111111  0.000000    0.00308642   3 t-inv T
 -0.166667 -0.000000 -0.000000    0.00308642   4 t-inv T
  0.166667 -0.166667 -0.000000    0.00308642   4 t-inv T
 -0.000000  0.166667  0.000000    0.00308642   4 t-inv T
 -0.222222 -0.000000 -0.000000    0.00308642   5 t-inv T
  0.222222 -0.222222 -0.000000    0.00308642   5 t-inv T
 -0.000000  0.222222  0.000000    0.00308642   5 t-inv T
 -0.277778 -0.000000 -0.000000    0.00308642   6 t-inv T
  0.277778 -0.277778 -0.000000    0.00308642   6 t-inv T
 -0.000000  0.277778  0.000000    0.00308642   6 t-inv T
 -0.333333 -0.000000 -0.000000    0.00308642   7 t-inv T
  0.333333 -0.333333 -0.000000    0.00308642   7 t-inv T
 -0.000000  0.333333  0.000000    0.00308642   7 t-inv T
 -0.388889 -0.000000 -0.000000    0.00308642   8 t-inv T
  0.388889 -0.388889 -0.000000    0.00308642   8 t-inv T
 -0.000000  0.388889  0.000000    0.00308642   8 t-inv T
 -0.444444 -0.000000 -0.000000    0.00308642   9 t-inv T
  0.444444 -0.444444 -0.000000    0.00308642   9 t-inv T
 -0.000000  0.444444  0.000000    0.00308642   9 t-inv T
 -0.111111 -0.055556 -0.000000    0.00308642  12 t-inv T
  0.111111 -0.166667 -0.000000    0.00308642  12 t-inv T
 -0.055556  0.166667  0.000000    0.00308642  12 t-inv T
  0.166667 -0.111111 -0.000000    0.00308642  12 t-inv T
  0.055556  0.111111  0.000000    0.00308642  12 t-inv T
 -0.166667  0.055556 -0.000000    0.00308642  12 t-inv T
 -0.166667 -0.055556 -0.000000    0.00308642  13 t-inv T
  0.166667 -0.222222 -0.000000    0.00308642  13 t-inv T
 -0.055556  0.222222  0.000000    0.00308642  13 t-inv T
  0.222222 -0.166667 -0.000000    0.00308642  13 t-inv T
  0.055556  0.166667  0.000000    0.00308642  13 t-inv T
 -0.222222  0.055556 -0.000000    0.00308642  13 t-inv T
 -0.222222 -0.055556 -0.000000    0.00308642  14 t-inv T
  0.222222 -0.277778 -0.000000    0.00308642  14 t-inv T
 -0.055556  0.277778  0.000000    0.00308642  14 t-inv T
  0.277778 -0.222222 -0.000000    0.00308642  14 t-inv T
  0.055556  0.222222  0.000000    0.00308642  14 t-inv T
 -0.277778  0.055556 -0.000000    0.00308642  14 t-inv T
 -0.277778 -0.055556 -0.000000    0.00308642  15 t-inv T
  0.277778 -0.333333 -0.000000    0.00308642  15 t-inv T
 -0.055556  0.333333  0.000000    0.00308642  15 t-inv T
  0.333333 -0.277778 -0.000000    0.00308642  15 t-inv T
  0.055556  0.277778  0.000000    0.00308642  15 t-inv T
 -0.333333  0.055556 -0.000000    0.00308642  15 t-inv T
 -0.333333 -0.055556 -0.000000    0.00308642  16 t-inv T
  0.333333 -0.388889 -0.000000    0.00308642  16 t-inv T
 -0.055556  0.388889  0.000000    0.00308642  16 t-inv T
  0.388889 -0.333333 -0.000000    0.00308642  16 t-inv T
  0.055556  0.333333  0.000000    0.00308642  16 t-inv T
 -0.388889  0.055556 -0.000000    0.00308642  16 t-inv T
 -0.388889 -0.055556 -0.000000    0.00308642  17 t-inv T
  0.388889 -0.444444 -0.000000    0.00308642  17 t-inv T
 -0.055556  0.444444  0.000000    0.00308642  17 t-inv T
  0.444444 -0.388889 -0.000000    0.00308642  17 t-inv T
  0.055556  0.388889  0.000000    0.00308642  17 t-inv T
 -0.444444  0.055556 -0.000000    0.00308642  17 t-inv T
 -0.444444 -0.055556 -0.000000    0.00308642  18 t-inv T
  0.444444 -0.500000 -0.000000    0.00308642  18 t-inv T
 -0.055556  0.500000  0.000000    0.00308642  18 t-inv T
  0.500000 -0.444444 -0.000000    0.00308642  18 t-inv T
  0.055556  0.444444  0.000000    0.00308642  18 t-inv T
 -0.500000  0.055556 -0.000000    0.00308642  18 t-inv T
 -0.166667 -0.111111 -0.000000    0.00308642  20 t-inv T
  0.166667 -0.277778 -0.000000    0.00308642  20 t-inv T
 -0.111111  0.277778  0.000000    0.00308642  20 t-inv T
  0.277778 -0.166667 -0.000000    0.00308642  20 t-inv T
  0.111111  0.166667  0.000000    0.00308642  20 t-inv T
 -0.277778  0.111111 -0.000000    0.00308642  20 t-inv T
 -0.222222 -0.111111 -0.000000    0.00308642  21 t-inv T
  0.222222 -0.333333 -0.000000    0.00308642  21 t-inv T
 -0.111111  0.333333  0.000000    0.00308642  21 t-inv T
  0.333333 -0.222222 -0.000000    0.00308642  21 t-inv T
  0.111111  0.222222  0.000000    0.00308642  21 t-inv T
 -0.333333  0.111111 -0.000000    0.00308642  21 t-inv T
 -0.277778 -0.111111 -0.000000    0.00308642  22 t-inv T
  0.277778 -0.388889 -0.000000    0.00308642  22 t-inv T
 -0.111111  0.388889  0.000000    0.00308642  22 t-inv T
  0.388889 -0.277778 -0.000000    0.00308642  22 t-inv T
  0.111111  0.277778  0.000000    0.00308642  22 t-inv T
 -0.388889  0.111111 -0.000000    0.00308642  22 t-inv T
 -0.333333 -0.111111 -0.000000    0.00308642  23 t-inv T
  0.333333 -0.444444 -0.000000    0.00308642  23 t-inv T
 -0.111111  0.444444  0.000000    0.00308642  23 t-inv T
  0.444444 -0.333333 -0.000000    0.00308642  23 t-inv T
  0.111111  0.333333  0.000000    0.00308642  23 t-inv T
 -0.444444  0.111111 -0.000000    0.00308642  23 t-inv T
 -0.388889 -0.111111 -0.000000    0.00308642  24 t-inv T
  0.388889 -0.500000 -0.000000    0.00308642  24 t-inv T
 -0.111111  0.500000  0.000000    0.00308642  24 t-inv T
  0.500000 -0.388889 -0.000000    0.00308642  24 t-inv T
  0.111111  0.388889  0.000000    0.00308642  24 t-inv T
 -0.500000  0.111111 -0.000000    0.00308642  24 t-inv T
 -0.222222 -0.166667 -0.000000    0.00308642  27 t-inv T
  0.222222 -0.388889 -0.000000    0.00308642  27 t-inv T
 -0.166667  0.388889  0.000000    0.00308642  27 t-inv T
  0.388889 -0.222222 -0.000000    0.00308642  27 t-inv T
  0.166667  0.222222  0.000000    0.00308642  27 t-inv T
 -0.388889  0.166667 -0.000000    0.00308642  27 t-inv T
 -0.277778 -0.166667 -0.000000    0.00308642  28 t-inv T
  0.277778 -0.444444 -0.000000    0.00308642  28 t-inv T
 -0.166667  0.444444  0.000000    0.00308642  28 t-inv T
  0.444444 -0.277778 -0.000000    0.00308642  28 t-inv T
  0.166667  0.277778  0.000000    0.00308642  28 t-inv T
 -0.444444  0.166667 -0.000000    0.00308642  28 t-inv T
 -0.333333 -0.166667 -0.000000    0.00308642  29 t-inv T
  0.333333 -0.500000 -0.000000    0.00308642  29 t-inv T
 -0.166667  0.500000  0.000000    0.00308642  29 t-inv T
  0.500000 -0.333333 -0.000000    0.00308642  29 t-inv T
  0.166667  0.333333  0.000000    0.00308642  29 t-inv T
 -0.500000  0.166667 -0.000000    0.00308642  29 t-inv T
 -0.388889 -0.166667 -0.000000    0.00308642  30 t-inv T
  0.388889 -0.555556 -0.000000    0.00308642  30 t-inv T
 -0.166667  0.555556  0.000000    0.00308642  30 t-inv T
  0.555556 -0.388889 -0.000000    0.00308642  30 t-inv T
  0.166667  0.388889  0.000000    0.00308642  30 t-inv T
 -0.555556  0.166667 -0.000000    0.00308642  30 t-inv T
 -0.277778 -0.222222 -0.000000    0.00308642  32 t-inv T
  0.277778 -0.500000 -0.000000    0.00308642  32 t-inv T
 -0.222222  0.500000  0.000000    0.00308642  32 t-inv T
  0.500000 -0.277778 -0.000000    0.00308642  32 t-inv T
  0.222222  0.277778  0.000000    0.00308642  32 t-inv T
 -0.500000  0.222222 -0.000000    0.00308642  32 t-inv T
 -0.333333 -0.222222 -0.000000    0.00308642  33 t-inv T
  0.333333 -0.555556 -0.000000    0.00308642  33 t-inv T
 -0.222222  0.555556  0.000000    0.00308642  33 t-inv T
  0.555556 -0.333333 -0.000000    0.00308642  33 t-inv T
  0.222222  0.333333  0.000000    0.00308642  33 t-inv T
 -0.555556  0.222222 -0.000000    0.00308642  33 t-inv T
 -0.333333 -0.277778 -0.000000    0.00308642  36 t-inv T
  0.333333 -0.611111 -0.000000    0.00308642  36 t-inv T
 -0.277778  0.611111  0.000000    0.00308642  36 t-inv T
  0.611111 -0.333333 -0.000000    0.00308642  36 t-inv T
  0.277778  0.333333  0.000000    0.00308642  36 t-inv T
 -0.611111  0.277778 -0.000000    0.00308642  36 t-inv T


--------------------------------------------------------------------------------------------------------




 Dimension of arrays:
   k-points           NKPTS =     37   k-points in BZ     NKDIM =     37   number of bands    NBANDS=     84
   number of dos      NEDOS =    301   number of ions     NIONS =     15
   non local maximal  LDIM  =      8   non local SUM 2l+1 LMDIM =     26
   total plane-waves  NPLWV = 117600
   max r-space proj   IRMAX =      1   max aug-charges    IRDMAX=  10950
   dimension x,y,z NGX =    20 NGY =   20 NGZ =  294
   dimension x,y,z NGXF=    40 NGYF=   40 NGZF=  588
   support grid    NGXF=    40 NGYF=   40 NGZF=  588
   ions per type =               5  10
 NGX,Y,Z   is equivalent  to a cutoff of  10.02, 10.02,  9.78 a.u.
 NGXF,Y,Z  is equivalent  to a cutoff of  20.04, 20.04, 19.55 a.u.


 I would recommend the setting:
   dimension x,y,z NGX =    19 NGY =   19 NGZ =  290
 SYSTEM =  unknown system                          
 POSCAR =   W Se                                   

 Startparameter for this run:
   NWRITE =      2    write-flag & timer
   PREC   = accura    normal or accurate (medium, high low for compatibility)
   ISTART =      0    job   : 0-new  1-cont  2-samecut
   ICHARG =      2    charge: 1-file 2-atom 10-const
   ISPIN  =      1    spin polarized calculation?
   LNONCOLLINEAR =      F non collinear calculations
   LSORBIT =      F    spin-orbit coupling
   INIWAV =      1    electr: 0-lowe 1-rand  2-diag
   LASPH  =      F    aspherical Exc in radial PAW
   METAGGA=      F    non-selfconsistent MetaGGA calc.

 Electronic Relaxation 1
   ENCUT  =  317.1 eV  23.31 Ry    4.83 a.u.   4.82  4.82 72.60*2*pi/ulx,y,z
   ENINI  =  317.1     initial cutoff
   ENAUG  =  807.8 eV  augmentation charge cutoff
   NELM   =     60;   NELMIN=  5; NELMDL= -5     # of ELM steps 
   EDIFF  = 0.1E-07   stopping-criterion for ELM
   LREAL  =      F    real-space projection
   NLSPLINE    = F    spline interpolate recip. space projectors
   LCOMPAT=      F    compatible to vasp.4.4
   GGA_COMPAT  = T    GGA compatible to vasp.4.4-vasp.4.6
   LMAXPAW     = -100 max onsite density
   LMAXMIX     =    2 max onsite mixed and CHGCAR
   VOSKOWN=      0    Vosko Wilk Nusair interpolation
   ROPT   =    0.00000   0.00000
 Ionic relaxation
   EDIFFG = 0.1E-06   stopping-criterion for IOM
   NSW    =      0    number of steps for IOM
   NBLOCK =      1;   KBLOCK =      1    inner block; outer block 
   IBRION =     -1    ionic relax: 0-MD 1-quasi-New 2-CG
   NFREE  =      0    steps in history (QN), initial steepest desc. (CG)
   ISIF   =      2    stress and relaxation
   IWAVPR =     10    prediction:  0-non 1-charg 2-wave 3-comb
   ISYM   =      2    0-nonsym 1-usesym 2-fastsym
   LCORR  =      T    Harris-Foulkes like correction to forces

   POTIM  = 0.5000    time-step for ionic-motion
   TEIN   =    0.0    initial temperature
   TEBEG  =    0.0;   TEEND  =   0.0 temperature during run
   SMASS  =  -3.00    Nose mass-parameter (am)
   estimated Nose-frequenzy (Omega)   =  0.10E-29 period in steps =****** mass=  -0.252E-27a.u.
   SCALEE = 1.0000    scale energy and forces
   NPACO  =    256;   APACO  = 16.0  distance and # of slots for P.C.
   PSTRESS=    0.0 pullay stress

  Mass of Ions in am
   POMASS = 183.85 78.96
  Ionic Valenz
   ZVAL   =  14.00  6.00
  Atomic Wigner-Seitz radii
   RWIGS  =  -1.00 -1.00
  virtual crystal weights 
   VCA    =   1.00  1.00
   NELECT =     130.0000    total number of electrons
   NUPDOWN=      -1.0000    fix difference up-down

 DOS related values:
   EMIN   =  10.00;   EMAX   =-10.00  energy-range for DOS
   EFERMI =   0.00
   ISMEAR =    -5;   SIGMA  =   0.01  broadening in eV -4-tet -1-fermi 0-gaus

 Electronic relaxation 2 (details)
   IALGO  =     38    algorithm
   LDIAG  =      T    sub-space diagonalisation (order eigenvalues)
   LSUBROT=      F    optimize rotation matrix (better conditioning)
   TURBO    =      0    0=normal 1=particle mesh
   IRESTART =      0    0=no restart 2=restart with 2 vectors
   NREBOOT  =      0    no. of reboots
   NMIN     =      0    reboot dimension
   EREF     =   0.00    reference energy to select bands
   IMIX   =      4    mixing-type and parameters
     AMIX     =   0.40;   BMIX     =  1.00
     AMIX_MAG =   1.60;   BMIX_MAG =  1.00
     AMIN     =   0.10
     WC   =   100.;   INIMIX=   1;  MIXPRE=   1;  MAXMIX= -45

 Intra band minimization:
   WEIMIN = 0.0000     energy-eigenvalue tresh-hold
   EBREAK =  0.30E-10  absolut break condition
   DEPER  =   0.30     relativ break condition  

   TIME   =   0.40     timestep for ELM

  volume/ion in A,a.u.               =      31.80       214.60
  Fermi-wavevector in a.u.,A,eV,Ry     =   1.061411  2.005776 15.328238  1.126594
  Thomas-Fermi vector in A             =   2.196826
 
 Write flags
   LWAVE  =      T    write WAVECAR
   LCHARG =      T    write CHGCAR
   LVTOT  =      F    write LOCPOT, total local potential
   LVHAR  =      F    write LOCPOT, Hartree potential only
   LELF   =      F    write electronic localiz. function (ELF)
   LORBIT =      0    0 simple, 1 ext, 2 COOP (PROOUT)


 Dipole corrections
   LMONO  =      F    monopole corrections only (constant potential shift)
   LDIPOL =      F    correct potential (dipole corrections)
   IDIPOL =      0    1-x, 2-y, 3-z, 4-all directions 
   EPSILON=  1.0000000 bulk dielectric constant

 Exchange correlation treatment:
   GGA     =    PE    GGA type
   LEXCH   =     8    internal setting for exchange type
   VOSKOWN=      0    Vosko Wilk Nusair interpolation
   LHFCALC =     F    Hartree Fock is set to
   LHFONE  =     F    Hartree Fock one center treatment
   AEXX    =    0.0000 exact exchange contribution

 Linear response parameters
   LEPSILON=     T    determine dielectric tensor
   LRPA    =     F    only Hartree local field effects (RPA)
   LNABLA  =     F    use nabla operator in PAW spheres
   LVEL    =     F    velocity operator in full k-point grid
   LINTERFAST=   F  fast interpolation
   KINTER  =     0    interpolate to denser k-point grid
   CSHIFT  =0.1000    complex shift for real part using Kramers Kronig
   OMEGAMAX=  -1.0    maximum frequency
   DEG_THRESHOLD= 0.2000000E-02 threshold for treating states as degnerate
   RTIME   =    0.100 relaxation time in fs

 Orbital magnetization related:
   ORBITALMAG=     F  switch on orbital magnetization
   LCHIMAG   =     F  perturbation theory with respect to B field
   DQ        =  0.001000  dq finite difference perturbation B field



--------------------------------------------------------------------------------------------------------


 Static calculation
 charge density and potential will be updated during run
 non-spin polarized calculation
 Variant of blocked Davidson
 Davidson routine will perform the subspace rotation
 perform sub-space diagonalisation
    after iterative eigenvector-optimisation
 modified Broyden-mixing scheme, WC =      100.0
 initial mixing is a Kerker type mixing with AMIX =  0.4000 and BMIX =      1.0000
 Hartree-type preconditioning will be used
 using additional bands           19
 reciprocal scheme for non local part
 use partial core corrections
 calculate Harris-corrections to forces 
   (improved forces if not selfconsistent)
 use gradient corrections 
 use of overlap-Matrix (Vanderbilt PP)
 Fermi weights with tetrahedron method with Bloechl corrections


--------------------------------------------------------------------------------------------------------


  energy-cutoff  :      317.13
  volume of cell :      477.00
      direct lattice vectors                 reciprocal lattice vectors
     3.319006624  0.000000000  0.000000000     0.301294970  0.173952732  0.000000000
    -1.659503312  2.874344052  0.000000000     0.000000000  0.347905464  0.000000000
     0.000000000  0.000000000 50.000000000     0.000000000  0.000000000  0.020000000

  length of vectors
     3.319006624  3.319006624 50.000000000     0.347905464  0.347905464  0.020000000


 
 k-points in units of 2pi/SCALE and weight: KPOINTS created by Atomic Simulation Env
   0.00000000  0.00000000  0.00000000       0.003
   0.01673861  0.00966404  0.00000000       0.019
   0.03347722  0.01932808  0.00000000       0.019
   0.05021583  0.02899212  0.00000000       0.019
   0.06695444  0.03865616  0.00000000       0.019
   0.08369305  0.04832020  0.00000000       0.019
   0.10043166  0.05798424  0.00000000       0.019
   0.11717027  0.06764828  0.00000000       0.019
   0.13390888  0.07731233  0.00000000       0.019
   0.15064748  0.08697637  0.00000000       0.009
   0.01673861  0.02899212  0.00000000       0.019
   0.03347722  0.03865616  0.00000000       0.037
   0.05021583  0.04832020  0.00000000       0.037
   0.06695444  0.05798424  0.00000000       0.037
   0.08369305  0.06764828  0.00000000       0.037
   0.10043166  0.07731233  0.00000000       0.037
   0.11717027  0.08697637  0.00000000       0.037
   0.13390888  0.09664041  0.00000000       0.037
   0.03347722  0.05798424  0.00000000       0.019
   0.05021583  0.06764828  0.00000000       0.037
   0.06695444  0.07731233  0.00000000       0.037
   0.08369305  0.08697637  0.00000000       0.037
   0.10043166  0.09664041  0.00000000       0.037
   0.11717027  0.10630445  0.00000000       0.037
   0.13390888  0.11596849  0.00000000       0.019
   0.05021583  0.08697637  0.00000000       0.019
   0.06695444  0.09664041  0.00000000       0.037
   0.08369305  0.10630445  0.00000000       0.037
   0.10043166  0.11596849  0.00000000       0.037
   0.11717027  0.12563253  0.00000000       0.037
   0.06695444  0.11596849  0.00000000       0.019
   0.08369305  0.12563253  0.00000000       0.037
   0.10043166  0.13529657  0.00000000       0.037
   0.11717027  0.14496061  0.00000000       0.019
   0.08369305  0.14496061  0.00000000       0.019
   0.10043166  0.15462465  0.00000000       0.037
   0.10043166  0.17395273  0.00000000       0.006
 
 k-points in reciprocal lattice and weights: KPOINTS created by Atomic Simulation Env
   0.00000000  0.00000000  0.00000000       0.003
   0.05555556  0.00000000  0.00000000       0.019
   0.11111111  0.00000000  0.00000000       0.019
   0.16666667  0.00000000  0.00000000       0.019
   0.22222222  0.00000000  0.00000000       0.019
   0.27777778  0.00000000  0.00000000       0.019
   0.33333333  0.00000000  0.00000000       0.019
   0.38888889  0.00000000  0.00000000       0.019
   0.44444444  0.00000000  0.00000000       0.019
   0.50000000  0.00000000  0.00000000       0.009
   0.05555556  0.05555556  0.00000000       0.019
   0.11111111  0.05555556  0.00000000       0.037
   0.16666667  0.05555556  0.00000000       0.037
   0.22222222  0.05555556  0.00000000       0.037
   0.27777778  0.05555556  0.00000000       0.037
   0.33333333  0.05555556  0.00000000       0.037
   0.38888889  0.05555556  0.00000000       0.037
   0.44444444  0.05555556  0.00000000       0.037
   0.11111111  0.11111111  0.00000000       0.019
   0.16666667  0.11111111  0.00000000       0.037
   0.22222222  0.11111111  0.00000000       0.037
   0.27777778  0.11111111  0.00000000       0.037
   0.33333333  0.11111111  0.00000000       0.037
   0.38888889  0.11111111  0.00000000       0.037
   0.44444444  0.11111111  0.00000000       0.019
   0.16666667  0.16666667  0.00000000       0.019
   0.22222222  0.16666667  0.00000000       0.037
   0.27777778  0.16666667  0.00000000       0.037
   0.33333333  0.16666667  0.00000000       0.037
   0.38888889  0.16666667  0.00000000       0.037
   0.22222222  0.22222222  0.00000000       0.019
   0.27777778  0.22222222  0.00000000       0.037
   0.33333333  0.22222222  0.00000000       0.037
   0.38888889  0.22222222  0.00000000       0.019
   0.27777778  0.27777778  0.00000000       0.019
   0.33333333  0.27777778  0.00000000       0.037
   0.33333333  0.33333333  0.00000000       0.006
 
 position of ions in fractional coordinates (direct lattice) 
   0.16666667  0.33333333  0.24040000
   0.83333333  0.66666667  0.37020000
   0.16666667  0.33333333  0.50000000
   0.83333333  0.66666667  0.62980000
   0.16666667  0.33333333  0.75960000
   0.83333333  0.66666667  0.27398553
   0.83333333  0.66666667  0.20681447
   0.16666667  0.33333333  0.40378553
   0.16666667  0.33333333  0.33661447
   0.83333333  0.66666667  0.53358553
   0.83333333  0.66666667  0.46641447
   0.16666667  0.33333333  0.66338553
   0.16666667  0.33333333  0.59621447
   0.83333333  0.66666667  0.79318553
   0.83333333  0.66666667  0.72601447
 
 position of ions in cartesian coordinates  (Angst):
  -0.00000000  0.95811468 12.02000000
   1.65950331  1.91622937 18.51000000
  -0.00000000  0.95811468 25.00000000
   1.65950331  1.91622937 31.49000000
  -0.00000000  0.95811468 37.98000000
   1.65950331  1.91622937 13.69927640
   1.65950331  1.91622937 10.34072360
  -0.00000000  0.95811468 20.18927640
  -0.00000000  0.95811468 16.83072360
   1.65950331  1.91622937 26.67927640
   1.65950331  1.91622937 23.32072360
  -0.00000000  0.95811468 33.16927640
  -0.00000000  0.95811468 29.81072360
   1.65950331  1.91622937 39.65927640
   1.65950331  1.91622937 36.30072360
 


--------------------------------------------------------------------------------------------------------


 k-point  1 :   0.0000 0.0000 0.0000  plane waves:    6121
 k-point  2 :   0.0556 0.0000 0.0000  plane waves:    6111
 k-point  3 :   0.1111 0.0000 0.0000  plane waves:    6099
 k-point  4 :   0.1667 0.0000 0.0000  plane waves:    6067
 k-point  5 :   0.2222 0.0000 0.0000  plane waves:    6078
 k-point  6 :   0.2778 0.0000 0.0000  plane waves:    6110
 k-point  7 :   0.3333 0.0000 0.0000  plane waves:    6112
 k-point  8 :   0.3889 0.0000 0.0000  plane waves:    6106
 k-point  9 :   0.4444 0.0000 0.0000  plane waves:    6154
 k-point 10 :   0.5000 0.0000 0.0000  plane waves:    6148
 k-point 11 :   0.0556 0.0556 0.0000  plane waves:    6097
 k-point 12 :   0.1111 0.0556 0.0000  plane waves:    6081
 k-point 13 :   0.1667 0.0556 0.0000  plane waves:    6065
 k-point 14 :   0.2222 0.0556 0.0000  plane waves:    6087
 k-point 15 :   0.2778 0.0556 0.0000  plane waves:    6111
 k-point 16 :   0.3333 0.0556 0.0000  plane waves:    6129
 k-point 17 :   0.3889 0.0556 0.0000  plane waves:    6117
 k-point 18 :   0.4444 0.0556 0.0000  plane waves:    6146
 k-point 19 :   0.1111 0.1111 0.0000  plane waves:    6073
 k-point 20 :   0.1667 0.1111 0.0000  plane waves:    6075
 k-point 21 :   0.2222 0.1111 0.0000  plane waves:    6102
 k-point 22 :   0.2778 0.1111 0.0000  plane waves:    6123
 k-point 23 :   0.3333 0.1111 0.0000  plane waves:    6123
 k-point 24 :   0.3889 0.1111 0.0000  plane waves:    6135
 k-point 25 :   0.4444 0.1111 0.0000  plane waves:    6144
 k-point 26 :   0.1667 0.1667 0.0000  plane waves:    6095
 k-point 27 :   0.2222 0.1667 0.0000  plane waves:    6106
 k-point 28 :   0.2778 0.1667 0.0000  plane waves:    6111
 k-point 29 :   0.3333 0.1667 0.0000  plane waves:    6126
 k-point 30 :   0.3889 0.1667 0.0000  plane waves:    6142
 k-point 31 :   0.2222 0.2222 0.0000  plane waves:    6129
 k-point 32 :   0.2778 0.2222 0.0000  plane waves:    6122
 k-point 33 :   0.3333 0.2222 0.0000  plane waves:    6162
 k-point 34 :   0.3889 0.2222 0.0000  plane waves:    6183
 k-point 35 :   0.2778 0.2778 0.0000  plane waves:    6135
 k-point 36 :   0.3333 0.2778 0.0000  plane waves:    6164
 k-point 37 :   0.3333 0.3333 0.0000  plane waves:    6165

 maximum and minimum number of plane-waves per node :      6183     6065

 maximum number of plane-waves:      6183
 maximum index in each direction: 
   IXMAX=    4   IYMAX=    4   IZMAX=   72
   IXMIN=   -5   IYMIN=   -5   IZMIN=  -72

 NGX is ok and might be reduce to  20
 NGY is ok and might be reduce to  20
 NGZ is ok and might be reduce to 290

 serial   3D FFT for wavefunctions
 parallel 3D FFT for charge:
    minimum data exchange during FFTs selected (reduces bandwidth)


 total amount of memory used by VASP on root node   147997. kBytes
========================================================================

   base      :      30000. kBytes
   nonl-proj :      96730. kBytes
   fftplans  :       1943. kBytes
   grid      :       7351. kBytes
   one-center:        486. kBytes
   wavefun   :      11487. kBytes
 
     INWAV:  cpu time    0.0000: real time    0.0000
 Broyden mixing: mesh for mixing (old mesh)
   NGX =  9   NGY =  9   NGZ =145
  (NGX  = 40   NGY  = 40   NGZ  =588)
  gives a total of  11745 points

 initial charge density was supplied:
 charge density of overlapping atoms calculated
 number of electron     130.0000000 magnetization 
 keeping initial charge density in first step


--------------------------------------------------------------------------------------------------------


 Maximum index for augmentation-charges          877 (set IRDMAX)


--------------------------------------------------------------------------------------------------------


 First call to EWALD:  gamma=   0.227
 Maximum number of real-space cells 7x 7x 1
 Maximum number of reciprocal cells 1x 1x15

 FEWALD executed in parallel
    FEWALD:  cpu time    0.0020: real time    0.0013


----------------------------------------- Iteration    1(   1)  ---------------------------------------


    POTLOK:  cpu time    0.0360: real time    0.0366
    SETDIJ:  cpu time    0.0070: real time    0.0069
     EDDAV:  cpu time    6.1611: real time    6.1710
 BZINTS: Fermi energy: 13.425379;130.000000 electrons
         Band energy:-946.113517;  BLOECHL correction: -0.096840
       DOS:  cpu time    0.0260: real time    0.0268
    --------------------------------------------
      LOOP:  cpu time    6.2321: real time    6.2446

 eigenvalue-minimisations  :  7700
 total energy-change (2. order) : 0.9223165E+03  (-0.5602843E+04)
 number of electron     130.0000000 magnetization 
 augmentation part      130.0000000 magnetization 

 Free energy of the ion-electron system (eV)
  ---------------------------------------------------
  alpha Z        PSCENC =       362.52912721
  Ewald energy   TEWEN  =     78253.21004013
  -Hartree energ DENC   =    -89180.04100119
  -exchange      EXHF   =         0.00000000
  -V(xc)+E(xc)   XCENC  =       -97.26293950
  PAW double counting   =      9893.28620401    -9252.85206492
  entropy T*S    EENTRO =         0.00000000
  eigenvalues    EBANDS =      -946.11351678
  atomic energy  EATOM  =     11889.56067768
  Solvation  Ediel_sol  =         0.00000000
  ---------------------------------------------------
  free energy    TOTEN  =       922.31652665 eV

  energy without entropy =      922.31652665  energy(sigma->0) =      922.31652665


--------------------------------------------------------------------------------------------------------




----------------------------------------- Iteration    1(   2)  ---------------------------------------


     EDDAV:  cpu time    6.5440: real time    6.5538
 BZINTS: Fermi energy:  4.628546;130.000000 electrons
         Band energy:***********;  BLOECHL correction:  0.000000
       DOS:  cpu time    0.0050: real time    0.0053
    --------------------------------------------
      LOOP:  cpu time    6.5500: real time    6.5617

 eigenvalue-minimisations  :  8288
 total energy-change (2. order) :-0.9851846E+03  (-0.9726622E+03)
 number of electron     130.0000000 magnetization 
 augmentation part      130.0000000 magnetization 

 Free energy of the ion-electron system (eV)
  ---------------------------------------------------
  alpha Z        PSCENC =       362.52912721
  Ewald energy   TEWEN  =     78253.21004013
  -Hartree energ DENC   =    -89180.04100119
  -exchange      EXHF   =         0.00000000
  -V(xc)+E(xc)   XCENC  =       -97.26293950
  PAW double counting   =      9893.28620401    -9252.85206492
  entropy T*S    EENTRO =         0.00000000
  eigenvalues    EBANDS =     -1931.29808168
  atomic energy  EATOM  =     11889.56067768
  Solvation  Ediel_sol  =         0.00000000
  ---------------------------------------------------
  free energy    TOTEN  =       -62.86803826 eV

  energy without entropy =      -62.86803826  energy(sigma->0) =      -62.86803826


--------------------------------------------------------------------------------------------------------




----------------------------------------- Iteration    1(   3)  ---------------------------------------


     EDDAV:  cpu time    6.8810: real time    6.8850
 BZINTS: Fermi energy:  3.235482;130.000000 electrons
         Band energy:***********;  BLOECHL correction:  0.000000
       DOS:  cpu time    0.0050: real time    0.0050
    --------------------------------------------
      LOOP:  cpu time    6.8870: real time    6.8925

 eigenvalue-minimisations  :  8652
 total energy-change (2. order) :-0.6536663E+02  (-0.6499985E+02)
 number of electron     130.0000000 magnetization 
 augmentation part      130.0000000 magnetization 

 Free energy of the ion-electron system (eV)
  ---------------------------------------------------
  alpha Z        PSCENC =       362.52912721
  Ewald energy   TEWEN  =     78253.21004013
  -Hartree energ DENC   =    -89180.04100119
  -exchange      EXHF   =         0.00000000
  -V(xc)+E(xc)   XCENC  =       -97.26293950
  PAW double counting   =      9893.28620401    -9252.85206492
  entropy T*S    EENTRO =         0.00000000
  eigenvalues    EBANDS =     -1996.66471195
  atomic energy  EATOM  =     11889.56067768
  Solvation  Ediel_sol  =         0.00000000
  ---------------------------------------------------
  free energy    TOTEN  =      -128.23466853 eV

  energy without entropy =     -128.23466853  energy(sigma->0) =     -128.23466853


--------------------------------------------------------------------------------------------------------




----------------------------------------- Iteration    1(   4)  ---------------------------------------


     EDDAV:  cpu time    7.1019: real time    7.1059
 BZINTS: Fermi energy:  3.266704;130.000000 electrons
         Band energy:***********;  BLOECHL correction:  0.000000
       DOS:  cpu time    0.0050: real time    0.0050
    --------------------------------------------
      LOOP:  cpu time    7.1069: real time    7.1135

 eigenvalue-minimisations  :  9016
 total energy-change (2. order) :-0.1367809E+01  (-0.1364558E+01)
 number of electron     130.0000000 magnetization 
 augmentation part      130.0000000 magnetization 

 Free energy of the ion-electron system (eV)
  ---------------------------------------------------
  alpha Z        PSCENC =       362.52912721
  Ewald energy   TEWEN  =     78253.21004013
  -Hartree energ DENC   =    -89180.04100119
  -exchange      EXHF   =         0.00000000
  -V(xc)+E(xc)   XCENC  =       -97.26293950
  PAW double counting   =      9893.28620401    -9252.85206492
  entropy T*S    EENTRO =         0.00000000
  eigenvalues    EBANDS =     -1998.03252111
  atomic energy  EATOM  =     11889.56067768
  Solvation  Ediel_sol  =         0.00000000
  ---------------------------------------------------
  free energy    TOTEN  =      -129.60247769 eV

  energy without entropy =     -129.60247769  energy(sigma->0) =     -129.60247769


--------------------------------------------------------------------------------------------------------




----------------------------------------- Iteration    1(   5)  ---------------------------------------


     EDDAV:  cpu time    6.4100: real time    6.4193
 BZINTS: Fermi energy:  3.242030;130.000000 electrons
         Band energy:***********;  BLOECHL correction:  0.000000
       DOS:  cpu time    0.0040: real time    0.0044
    CHARGE:  cpu time    0.2220: real time    0.2223
    MIXING:  cpu time    0.0010: real time    0.0011
    --------------------------------------------
      LOOP:  cpu time    6.6380: real time    6.6505

 eigenvalue-minimisations  :  7980
 total energy-change (2. order) :-0.2279282E-01  (-0.2278243E-01)
 number of electron     130.0000000 magnetization 
 augmentation part      -22.1168809 magnetization 

 Broyden mixing:
  rms(total) = 0.17157E+02    rms(broyden)= 0.17157E+02
  rms(prec ) = 0.17162E+02
  weight for this iteration     100.00

 Free energy of the ion-electron system (eV)
  ---------------------------------------------------
  alpha Z        PSCENC =       362.52912721
  Ewald energy   TEWEN  =     78253.21004013
  -Hartree energ DENC   =    -89180.04100119
  -exchange      EXHF   =         0.00000000
  -V(xc)+E(xc)   XCENC  =       -97.26293950
  PAW double counting   =      9893.28620401    -9252.85206492
  entropy T*S    EENTRO =         0.00000000
  eigenvalues    EBANDS =     -1998.05531393
  atomic energy  EATOM  =     11889.56067768
  Solvation  Ediel_sol  =         0.00000000
  ---------------------------------------------------
  free energy    TOTEN  =      -129.62527050 eV

  energy without entropy =     -129.62527050  energy(sigma->0) =     -129.62527050


--------------------------------------------------------------------------------------------------------




----------------------------------------- Iteration    1(   6)  ---------------------------------------


    POTLOK:  cpu time    0.0290: real time    0.0295
    SETDIJ:  cpu time    0.0060: real time    0.0065
     EDDAV:  cpu time    6.5690: real time    6.5808
 BZINTS: Fermi energy:  1.983879;130.000000 electrons
         Band energy:***********;  BLOECHL correction:  0.000000
       DOS:  cpu time    0.0050: real time    0.0049
    CHARGE:  cpu time    0.2430: real time    0.2425
    MIXING:  cpu time    0.0010: real time    0.0011
    --------------------------------------------
      LOOP:  cpu time    6.8540: real time    6.8691

 eigenvalue-minimisations  :  7560
 total energy-change (2. order) : 0.9748524E+01  (-0.6002309E+01)
 number of electron     129.9999999 magnetization 
 augmentation part      -20.6732015 magnetization 

 Broyden mixing:
  rms(total) = 0.15040E+02    rms(broyden)= 0.15040E+02
  rms(prec ) = 0.15041E+02
  weight for this iteration     100.00

 eigenvalues of (default mixing * dielectric matrix)
  average eigenvalue GAMMA=   4.1611
  4.1611

 Free energy of the ion-electron system (eV)
  ---------------------------------------------------
  alpha Z        PSCENC =       362.52912721
  Ewald energy   TEWEN  =     78253.21004013
  -Hartree energ DENC   =    -88986.38192378
  -exchange      EXHF   =         0.00000000
  -V(xc)+E(xc)   XCENC  =      -100.84637888
  PAW double counting   =     12095.19211689   -11462.21985150
  entropy T*S    EENTRO =         0.00000000
  eigenvalues    EBANDS =     -2170.92055405
  atomic energy  EATOM  =     11889.56067768
  Solvation  Ediel_sol  =         0.00000000
  ---------------------------------------------------
  free energy    TOTEN  =      -119.87674631 eV

  energy without entropy =     -119.87674631  energy(sigma->0) =     -119.87674631


--------------------------------------------------------------------------------------------------------




----------------------------------------- Iteration    1(   7)  ---------------------------------------


    POTLOK:  cpu time    0.0300: real time    0.0311
    SETDIJ:  cpu time    0.0070: real time    0.0069
     EDDAV:  cpu time    6.6590: real time    6.6627
 BZINTS: Fermi energy:  5.090637;130.000000 electrons
         Band energy:***********;  BLOECHL correction:  0.000000
       DOS:  cpu time    0.0050: real time    0.0055
    CHARGE:  cpu time    0.2340: real time    0.2340
    MIXING:  cpu time    0.0010: real time    0.0012
    --------------------------------------------
      LOOP:  cpu time    6.9369: real time    6.9447

 eigenvalue-minimisations  :  8344
 total energy-change (2. order) :-0.2420582E+02  (-0.1629400E+02)
 number of electron     130.0000000 magnetization 
 augmentation part      -22.2357724 magnetization 

 Broyden mixing:
  rms(total) = 0.16026E+02    rms(broyden)= 0.16026E+02
  rms(prec ) = 0.16042E+02
  weight for this iteration     100.00

 eigenvalues of (default mixing * dielectric matrix)
  average eigenvalue GAMMA=   1.5014
  0.8335  2.1694

 Free energy of the ion-electron system (eV)
  ---------------------------------------------------
  alpha Z        PSCENC =       362.52912721
  Ewald energy   TEWEN  =     78253.21004013
  -Hartree energ DENC   =    -89338.24020372
  -exchange      EXHF   =         0.00000000
  -V(xc)+E(xc)   XCENC  =       -99.01898051
  PAW double counting   =     20353.29286882   -19700.84995877
  entropy T*S    EENTRO =         0.00000000
  eigenvalues    EBANDS =     -1864.56614158
  atomic energy  EATOM  =     11889.56067768
  Solvation  Ediel_sol  =         0.00000000
  ---------------------------------------------------
  free energy    TOTEN  =      -144.08257073 eV

  energy without entropy =     -144.08257073  energy(sigma->0) =     -144.08257073


--------------------------------------------------------------------------------------------------------




----------------------------------------- Iteration    1(   8)  ---------------------------------------


    POTLOK:  cpu time    0.0300: real time    0.0301
    SETDIJ:  cpu time    0.0060: real time    0.0065
     EDDAV:  cpu time    6.7310: real time    6.7418
 BZINTS: Fermi energy:  2.413501;130.000000 electrons
         Band energy:***********;  BLOECHL correction:  0.000000
       DOS:  cpu time    0.0040: real time    0.0049
    CHARGE:  cpu time    0.2490: real time    0.2492
    MIXING:  cpu time    0.0010: real time    0.0010
    --------------------------------------------
      LOOP:  cpu time    7.0219: real time    7.0369

 eigenvalue-minimisations  :  7840
 total energy-change (2. order) : 0.2663358E+02  (-0.9938471E+01)
 number of electron     130.0000000 magnetization 
 augmentation part      -21.0522173 magnetization 

 Broyden mixing:
  rms(total) = 0.42954E+00    rms(broyden)= 0.42916E+00
  rms(prec ) = 0.43049E+00
  weight for this iteration     100.00

 eigenvalues of (default mixing * dielectric matrix)
  average eigenvalue GAMMA=   1.3061
  2.2115  0.8535  0.8535

 Free energy of the ion-electron system (eV)
  ---------------------------------------------------
  alpha Z        PSCENC =       362.52912721
  Ewald energy   TEWEN  =     78253.21004013
  -Hartree energ DENC   =    -89053.33911359
  -exchange      EXHF   =         0.00000000
  -V(xc)+E(xc)   XCENC  =      -101.17606622
  PAW double counting   =     15878.45987119   -15238.35909443
  entropy T*S    EENTRO =         0.00000000
  eigenvalues    EBANDS =     -2108.33442913
  atomic energy  EATOM  =     11889.56067768
  Solvation  Ediel_sol  =         0.00000000
  ---------------------------------------------------
  free energy    TOTEN  =      -117.44898715 eV

  energy without entropy =     -117.44898715  energy(sigma->0) =     -117.44898715


--------------------------------------------------------------------------------------------------------




----------------------------------------- Iteration    1(   9)  ---------------------------------------


    POTLOK:  cpu time    0.0290: real time    0.0297
    SETDIJ:  cpu time    0.0070: real time    0.0064
     EDDAV:  cpu time    6.9040: real time    6.9271
 BZINTS: Fermi energy:  2.291394;130.000000 electrons
         Band energy:***********;  BLOECHL correction:  0.000000
       DOS:  cpu time    0.0050: real time    0.0049
    CHARGE:  cpu time    0.2480: real time    0.2483
    MIXING:  cpu time    0.0010: real time    0.0010
    --------------------------------------------
      LOOP:  cpu time    7.1949: real time    7.2198

 eigenvalue-minimisations  :  8008
 total energy-change (2. order) :-0.8123187E+00  (-0.8777060E+00)
 number of electron     130.0000000 magnetization 
 augmentation part      -20.9778052 magnetization 

 Broyden mixing:
  rms(total) = 0.37487E+00    rms(broyden)= 0.37478E+00
  rms(prec ) = 0.37608E+00
  weight for this iteration     100.00

 eigenvalues of (default mixing * dielectric matrix)
  average eigenvalue GAMMA=   1.1185
  2.1389  1.1980  0.8022  0.3350

 Free energy of the ion-electron system (eV)
  ---------------------------------------------------
  alpha Z        PSCENC =       362.52912721
  Ewald energy   TEWEN  =     78253.21004013
  -Hartree energ DENC   =    -89045.60430963
  -exchange      EXHF   =         0.00000000
  -V(xc)+E(xc)   XCENC  =      -101.21577558
  PAW double counting   =     15911.27119510   -15271.04979251
  entropy T*S    EENTRO =         0.00000000
  eigenvalues    EBANDS =     -2116.96246827
  atomic energy  EATOM  =     11889.56067768
  Solvation  Ediel_sol  =         0.00000000
  ---------------------------------------------------
  free energy    TOTEN  =      -118.26130587 eV

  energy without entropy =     -118.26130587  energy(sigma->0) =     -118.26130587


--------------------------------------------------------------------------------------------------------




----------------------------------------- Iteration    1(  10)  ---------------------------------------


    POTLOK:  cpu time    0.0300: real time    0.0305
    SETDIJ:  cpu time    0.0080: real time    0.0078
     EDDAV:  cpu time    6.9889: real time    6.9942
 BZINTS: Fermi energy:  2.307435;130.000000 electrons
         Band energy:***********;  BLOECHL correction:  0.000000
       DOS:  cpu time    0.0050: real time    0.0049
    CHARGE:  cpu time    0.2480: real time    0.2480
    MIXING:  cpu time    0.0010: real time    0.0011
    --------------------------------------------
      LOOP:  cpu time    7.2819: real time    7.2902

 eigenvalue-minimisations  :  8624
 total energy-change (2. order) :-0.5370129E-02  (-0.1502983E-01)
 number of electron     130.0000000 magnetization 
 augmentation part      -20.9673806 magnetization 

 Broyden mixing:
  rms(total) = 0.28210E+00    rms(broyden)= 0.28209E+00
  rms(prec ) = 0.28376E+00
  weight for this iteration     100.00

 eigenvalues of (default mixing * dielectric matrix)
  average eigenvalue GAMMA=   1.1480
  1.7234  1.7234  0.8485  0.7223  0.7223

 Free energy of the ion-electron system (eV)
  ---------------------------------------------------
  alpha Z        PSCENC =       362.52912721
  Ewald energy   TEWEN  =     78253.21004013
  -Hartree energ DENC   =    -89048.68785361
  -exchange      EXHF   =         0.00000000
  -V(xc)+E(xc)   XCENC  =      -101.16136243
  PAW double counting   =     15805.98483917   -15165.44799795
  entropy T*S    EENTRO =         0.00000000
  eigenvalues    EBANDS =     -2114.25414619
  atomic energy  EATOM  =     11889.56067768
  Solvation  Ediel_sol  =         0.00000000
  ---------------------------------------------------
  free energy    TOTEN  =      -118.26667600 eV

  energy without entropy =     -118.26667600  energy(sigma->0) =     -118.26667600


--------------------------------------------------------------------------------------------------------




----------------------------------------- Iteration    1(  11)  ---------------------------------------


    POTLOK:  cpu time    0.0300: real time    0.0309
    SETDIJ:  cpu time    0.0070: real time    0.0065
     EDDAV:  cpu time    7.3419: real time    7.3505
 BZINTS: Fermi energy:  2.383277;130.000000 electrons
         Band energy:***********;  BLOECHL correction:  0.000000
       DOS:  cpu time    0.0050: real time    0.0049
    CHARGE:  cpu time    0.2380: real time    0.2390
    MIXING:  cpu time    0.0010: real time    0.0012
    --------------------------------------------
      LOOP:  cpu time    7.6238: real time    7.6351

 eigenvalue-minimisations  :  8568
 total energy-change (2. order) : 0.3450455E-01  (-0.5567894E-02)
 number of electron     130.0000000 magnetization 
 augmentation part      -21.0006254 magnetization 

 Broyden mixing:
  rms(total) = 0.41855E+00    rms(broyden)= 0.41855E+00
  rms(prec ) = 0.41883E+00
  weight for this iteration     100.00

 eigenvalues of (default mixing * dielectric matrix)
  average eigenvalue GAMMA=   1.4105
  2.7679  2.3237  1.1958  0.7912  0.7912  0.5932

 Free energy of the ion-electron system (eV)
  ---------------------------------------------------
  alpha Z        PSCENC =       362.52912721
  Ewald energy   TEWEN  =     78253.21004013
  -Hartree energ DENC   =    -89059.03345976
  -exchange      EXHF   =         0.00000000
  -V(xc)+E(xc)   XCENC  =      -101.01936463
  PAW double counting   =     15530.04943186   -14888.75601890
  entropy T*S    EENTRO =         0.00000000
  eigenvalues    EBANDS =     -2104.77260503
  atomic energy  EATOM  =     11889.56067768
  Solvation  Ediel_sol  =         0.00000000
  ---------------------------------------------------
  free energy    TOTEN  =      -118.23217144 eV

  energy without entropy =     -118.23217144  energy(sigma->0) =     -118.23217144


--------------------------------------------------------------------------------------------------------




----------------------------------------- Iteration    1(  12)  ---------------------------------------


    POTLOK:  cpu time    0.0300: real time    0.0303
    SETDIJ:  cpu time    0.0060: real time    0.0065
     EDDAV:  cpu time    6.8020: real time    6.8161
 BZINTS: Fermi energy:  2.461747;130.000000 electrons
         Band energy:***********;  BLOECHL correction:  0.000000
       DOS:  cpu time    0.0050: real time    0.0049
    CHARGE:  cpu time    0.2400: real time    0.2399
    MIXING:  cpu time    0.0010: real time    0.0012
    --------------------------------------------
      LOOP:  cpu time    7.0859: real time    7.1018

 eigenvalue-minimisations  :  7924
 total energy-change (2. order) : 0.1355054E-01  (-0.4097886E-02)
 number of electron     130.0000000 magnetization 
 augmentation part      -21.0025823 magnetization 

 Broyden mixing:
  rms(total) = 0.35008E+00    rms(broyden)= 0.35008E+00
  rms(prec ) = 0.35011E+00
  weight for this iteration     100.00

 eigenvalues of (default mixing * dielectric matrix)
  average eigenvalue GAMMA=   1.2854
  2.2872  2.2872  1.1347  1.1347  0.7496  0.7024  0.7024

 Free energy of the ion-electron system (eV)
  ---------------------------------------------------
  alpha Z        PSCENC =       362.52912721
  Ewald energy   TEWEN  =     78253.21004013
  -Hartree energ DENC   =    -89070.67034332
  -exchange      EXHF   =         0.00000000
  -V(xc)+E(xc)   XCENC  =      -100.89738326
  PAW double counting   =     15272.84547820   -14630.42824986
  entropy T*S    EENTRO =         0.00000000
  eigenvalues    EBANDS =     -2094.36796769
  atomic energy  EATOM  =     11889.56067768
  Solvation  Ediel_sol  =         0.00000000
  ---------------------------------------------------
  free energy    TOTEN  =      -118.21862091 eV

  energy without entropy =     -118.21862091  energy(sigma->0) =     -118.21862091


--------------------------------------------------------------------------------------------------------




----------------------------------------- Iteration    1(  13)  ---------------------------------------


    POTLOK:  cpu time    0.0300: real time    0.0304
    SETDIJ:  cpu time    0.0050: real time    0.0066
     EDDAV:  cpu time    6.5920: real time    6.7165
 BZINTS: Fermi energy:  2.467004;130.000000 electrons
         Band energy:***********;  BLOECHL correction:  0.000000
       DOS:  cpu time    0.0050: real time    0.0049
    CHARGE:  cpu time    0.2220: real time    0.2435
    MIXING:  cpu time    0.0010: real time    0.0012
    --------------------------------------------
      LOOP:  cpu time    6.8560: real time    7.0063

 eigenvalue-minimisations  :  8232
 total energy-change (2. order) :-0.2669531E-03  (-0.5428215E-03)
 number of electron     130.0000000 magnetization 
 augmentation part      -21.0111853 magnetization 

 Broyden mixing:
  rms(total) = 0.19591E+00    rms(broyden)= 0.19591E+00
  rms(prec ) = 0.19595E+00
  weight for this iteration     100.00

 eigenvalues of (default mixing * dielectric matrix)
  average eigenvalue GAMMA=   1.2564
  2.5236  2.0820  1.3158  1.3158  0.7480  0.7480  0.7982  0.5198

 Free energy of the ion-electron system (eV)
  ---------------------------------------------------
  alpha Z        PSCENC =       362.52912721
  Ewald energy   TEWEN  =     78253.21004013
  -Hartree energ DENC   =    -89071.16286461
  -exchange      EXHF   =         0.00000000
  -V(xc)+E(xc)   XCENC  =      -100.89860345
  PAW double counting   =     15337.14503811   -14694.86244723
  entropy T*S    EENTRO =         0.00000000
  eigenvalues    EBANDS =     -2093.73985570
  atomic energy  EATOM  =     11889.56067768
  Solvation  Ediel_sol  =         0.00000000
  ---------------------------------------------------
  free energy    TOTEN  =      -118.21888786 eV

  energy without entropy =     -118.21888786  energy(sigma->0) =     -118.21888786


--------------------------------------------------------------------------------------------------------




----------------------------------------- Iteration    1(  14)  ---------------------------------------


    POTLOK:  cpu time    0.0290: real time    0.0310
    SETDIJ:  cpu time    0.0060: real time    0.0065
     EDDAV:  cpu time    6.3180: real time    6.3932
[...]


   POT+DIJ:  cpu time    0.0740: real time    0.0743
    HAMIL1:  cpu time    1.2298: real time    1.2309
    LRDIAG:  cpu time    0.2140: real time    0.2141
    LRDIIS:  cpu time    4.4633: real time    4.4659
    LRDIAG:  cpu time    0.2080: real time    0.2078
    MIXING:  cpu time    0.0020: real time    0.0020
    --------------------------------------------
      LOOP:  cpu time    6.7470: real time    6.7545

 Broyden mixing:
  rms(total) = 0.37245E-05    rms(broyden)= 0.37236E-05
  rms(prec ) = 0.39456E-05
  weight for this iteration     100.00

 eigenvalues of (default mixing * dielectric matrix)
  average eigenvalue GAMMA=   2.2693
  9.3651  7.2631  4.3223  3.7980  2.7718  2.7718  1.9114  1.9114  1.6922  0.9879
  0.9879  1.0910  1.0910  1.0045  0.8887  0.6694  0.6719  0.6924  0.7374  0.7566

 Free energy of the ion-electron system (eV)
  ---------------------------------------------------
  -Hartree energ DENC   =        -1.22971130
  -V(xc)+E(xc)   XCENC  =         0.02582268
  PAW double counting   =         0.07482589       -0.07428242
  entropy T*S    EENTRO =         0.00000000
  eigenvalues    EBANDS =        -0.51435050
  ---------------------------------------------------
  free energy    TOTEN  =        -1.71769565 eV

  energy without entropy =       -1.71769565


----------------------------------------- Iteration    3(  23)  ---------------------------------------


   POT+DIJ:  cpu time    0.0730: real time    0.0735
    HAMIL1:  cpu time    1.2368: real time    1.2363
    LRDIAG:  cpu time    0.2130: real time    0.2134
    LRDIIS:  cpu time    4.4723: real time    4.4742
    LRDIAG:  cpu time    0.2090: real time    0.2088
    MIXING:  cpu time    0.0020: real time    0.0021
    --------------------------------------------
      LOOP:  cpu time    6.7960: real time    6.8017

 Broyden mixing:
  rms(total) = 0.24270E-05    rms(broyden)= 0.24261E-05
  rms(prec ) = 0.24751E-05
  weight for this iteration     100.00

 eigenvalues of (default mixing * dielectric matrix)
  average eigenvalue GAMMA=   2.2756
  9.6349  7.2310  4.4442  3.8243  2.8706  2.8706  2.0516  2.0516  1.7314  1.7314
  0.9877  0.9877  1.0308  1.0308  0.9090  0.9090  0.7375  0.6687  0.6733  0.6938
  0.7169

 Free energy of the ion-electron system (eV)
  ---------------------------------------------------
  -Hartree energ DENC   =        -1.22970839
  -V(xc)+E(xc)   XCENC  =         0.02582240
  PAW double counting   =         0.07483391       -0.07429051
  entropy T*S    EENTRO =         0.00000000
  eigenvalues    EBANDS =        -0.51435128
  ---------------------------------------------------
  free energy    TOTEN  =        -1.71769387 eV

  energy without entropy =       -1.71769387


----------------------------------------- Iteration    3(  24)  ---------------------------------------


   POT+DIJ:  cpu time    0.0730: real time    0.0737
    HAMIL1:  cpu time    1.2348: real time    1.2349
    LRDIAG:  cpu time    0.2150: real time    0.2158
    LRDIIS:  cpu time    4.0614: real time    4.0632
    LRDIAG:  cpu time    0.2080: real time    0.2081
    MIXING:  cpu time    0.0020: real time    0.0021
    --------------------------------------------
      LOOP:  cpu time    6.3780: real time    6.4033

 Broyden mixing:
  rms(total) = 0.99928E-06    rms(broyden)= 0.99916E-06
  rms(prec ) = 0.10237E-05
  weight for this iteration     100.00

 eigenvalues of (default mixing * dielectric matrix)
  average eigenvalue GAMMA=   2.2513
  9.7392  7.2162  4.5990  3.6617  3.0328  3.0328  2.2208  2.2208  1.7504  1.7504
  0.9872  0.9872  1.0399  0.9699  0.9699  0.9852  0.8837  0.7374  0.6691  0.6726
  0.6925  0.7100

 Free energy of the ion-electron system (eV)
  ---------------------------------------------------
  -Hartree energ DENC   =        -1.22970772
  -V(xc)+E(xc)   XCENC  =         0.02582214
  PAW double counting   =         0.07483461       -0.07429122
  entropy T*S    EENTRO =         0.00000000
  eigenvalues    EBANDS =        -0.51440021
  ---------------------------------------------------
  free energy    TOTEN  =        -1.71774240 eV

  energy without entropy =       -1.71774240


------------------------ aborting loop because EDIFF is reached ----------------------------------------


 change of polarisation eV/A/(eV/A) component  3 :     0.000     0.000     3.365
 dielectric tensor                  component  3 :     0.000     0.000     2.277


--------------------------------------------------------------------------------------------------------


    FORLOC:  cpu time    0.0030: real time    0.0035
    FORNL :  cpu time    1.4138: real time    1.4138
    STRESS:  cpu time    3.6604: real time    3.6609
    FORCOR:  cpu time    0.0320: real time    0.0313
    OFIELD:  cpu time    0.0000: real time    0.0002

  Hirshfeld charges:
            ion         q(e)     
   ------------------------------
      1     W           0.285
      2     W           0.284
      3     W           0.284
      4     W           0.284
      5     W           0.285
      6     Se         -0.142
      7     Se         -0.143
      8     Se         -0.142
      9     Se         -0.142
     10     Se         -0.142
     11     Se         -0.142
     12     Se         -0.142
     13     Se         -0.142
     14     Se         -0.143
     15     Se         -0.142

  Tkatchenko/Scheffler method for vdW energy calculation
  ---------------------------------------------------------------------------------------------

  Parameters of vdW forcefield:
            C6ts              R0ts           ALPHAts        RELVOL
            (au)              (au)            (au)                
   ---------------------------------------------------------------
   W         896.455          4.120         73.045          1.028
   W         902.572          4.125         73.294          1.032
   W         902.619          4.125         73.296          1.032
   W         902.572          4.125         73.294          1.032
   W         896.455          4.120         73.045          1.028
   Se        213.931          4.057         25.233          1.009
   Se        209.415          4.042         24.965          0.999
   Se        213.940          4.057         25.233          1.009
   Se        213.925          4.057         25.232          1.009
   Se        213.940          4.057         25.233          1.009
   Se        213.940          4.057         25.233          1.009
   Se        213.925          4.057         25.232          1.009
   Se        213.940          4.057         25.233          1.009
   Se        209.415          4.042         24.965          0.999
   Se        213.931          4.057         25.233          1.009
  Edisp (eV):   -4.30866
    FORVDW:  cpu time    0.4419: real time    0.4418
    FORLOC:  cpu time    0.0030: real time    0.0035
    FORNL :  cpu time    1.4138: real time    1.4140
    STRESS:  cpu time    3.6504: real time    3.6516
    FORCOR:  cpu time    0.0300: real time    0.0293
    OFIELD:  cpu time    0.0000: real time    0.0002

  Hirshfeld charges:
            ion         q(e)     
   ------------------------------
      1     W           0.285
      2     W           0.284
      3     W           0.284
      4     W           0.284
      5     W           0.285
      6     Se         -0.142
      7     Se         -0.143
      8     Se         -0.142
      9     Se         -0.142
     10     Se         -0.142
     11     Se         -0.142
     12     Se         -0.142
     13     Se         -0.142
     14     Se         -0.143
     15     Se         -0.142

  Tkatchenko/Scheffler method for vdW energy calculation
  ---------------------------------------------------------------------------------------------

  Parameters of vdW forcefield:
            C6ts              R0ts           ALPHAts        RELVOL
            (au)              (au)            (au)                
   ---------------------------------------------------------------
   W         896.455          4.120         73.045          1.028
   W         902.572          4.125         73.294          1.032
   W         902.619          4.125         73.296          1.032
   W         902.572          4.125         73.294          1.032
   W         896.455          4.120         73.045          1.028
   Se        213.931          4.057         25.233          1.009
   Se        209.415          4.042         24.965          0.999
   Se        213.940          4.057         25.233          1.009
   Se        213.925          4.057         25.232          1.009
   Se        213.940          4.057         25.233          1.009
   Se        213.940          4.057         25.233          1.009
   Se        213.925          4.057         25.232          1.009
   Se        213.940          4.057         25.233          1.009
   Se        209.415          4.042         24.965          0.999
   Se        213.931          4.057         25.233          1.009
  Edisp (eV):   -4.30866
    FORVDW:  cpu time    0.4409: real time    0.4414
    FORNLD:  cpu time    3.1445: real time    3.1456

 PIEZOELECTRIC TENSOR FIELD DIRECTION 3  (e Angst)
 -----------------------------------------------------------------------------
     0.00002 -0.00000  0.00000           (  0.00000  0.00000  0.00000)
    -0.00000  0.00002  0.00000           (  0.00000  0.00000 -0.00000)
     0.00000  0.00000  0.00003           (  0.00000 -0.00000  0.00000)

 PIEZOELECTRIC TENSOR FIELD DIRECTION 3  (C/m^2)
 -----------------------------------------------------------------------------
     0.00000 -0.00000  0.00000
    -0.00000  0.00000  0.00000
     0.00000  0.00000  0.00000


      POSITION         DIRECTION 3           BORN EFFECTIVE CHARGE    (rigid.aug.   ionic)
 -----------------------------------------------------------------------------------------
     -0.00000      0.95811     12.02000     0.00000  0.00000-47.03886 (  1.95585 14.00000)
      1.65950      1.91623     18.51000    -0.00000  0.00000-12.46286 (  1.95582 14.00000)
     -0.00000      0.95811     25.00000     0.00000  0.00000 -1.83501 (  1.95582 14.00000)
      1.65950      1.91623     31.49000    -0.00000  0.00000-12.46286 (  1.95582 14.00000)
     -0.00000      0.95811     37.98000    -0.00000  0.00000-47.03879 (  1.95585 14.00000)
      1.65950      1.91623     13.69928     0.00000  0.00000 -3.96813 (  1.12261  6.00000)
      1.65950      1.91623     10.34072    -0.00000  0.00000  4.48836 (  1.12106  6.00000)
     -0.00000      0.95811     20.18928     0.00000  0.00000 -0.14121 (  1.12267  6.00000)
     -0.00000      0.95811     16.83072    -0.00000  0.00000  0.98825 (  1.12265  6.00000)
      1.65950      1.91623     26.67928     0.00000 -0.00000  0.93526 (  1.12267  6.00000)
      1.65950      1.91623     23.32072    -0.00000  0.00000  0.93526 (  1.12267  6.00000)
     -0.00000      0.95811     33.16928     0.00000  0.00000  0.98826 (  1.12265  6.00000)
     -0.00000      0.95811     29.81072    -0.00000 -0.00000 -0.14121 (  1.12267  6.00000)
      1.65950      1.91623     39.65928     0.00000 -0.00000  4.48836 (  1.12106  6.00000)
      1.65950      1.91623     36.30072     0.00000  0.00000 -3.96814 (  1.12261  6.00000)
 -----------------------------------------------------------------------------------------
    total drift (improves with k-points):   0.00000  0.00000*********




--------------------------------------------------------------------------------------------------------


  LATTYP: Found a hexagonal cell.
 ALAT       =     3.3190066245
 C/A-ratio  =    15.0647484797
  
  Lattice vectors:
  
 A1 = (   3.3190066245,   0.0000000000,   0.0000000000)
 A2 = (  -1.6595033122,   2.8743440521,   0.0000000000)
 A3 = (   0.0000000000,   0.0000000000,  50.0000000000)


Analysis of symmetry for initial positions (statically):
=====================================================================
 Subroutine PRICEL returns:
 Original cell was already a primitive cell.
 

 Routine SETGRP: Setting up the symmetry group for a 
 hexagonal supercell.


 Subroutine GETGRP returns: Found 12 space group operations
 (whereof  4 operations were pure point group operations)
 out of a pool of 24 trial point group operations.


The static configuration has the point symmetry C_2v.
 The point group associated with its full space group is D_3h.


Analysis of symmetry for dynamics (positions and initial velocities):
=====================================================================
 Subroutine PRICEL returns:
 Original cell was already a primitive cell.
 

 Routine SETGRP: Setting up the symmetry group for a 
 hexagonal supercell.


 Subroutine GETGRP returns: Found 12 space group operations
 (whereof  4 operations were pure point group operations)
 out of a pool of 24 trial point group operations.


The dynamic configuration has the point symmetry C_2v.
 The point group associated with its full space group is D_3h.


 Subroutine INISYM returns: Found 12 space group operations
 (whereof  4 operations are pure point group operations),
 and found     1 'primitive' translations



 MACROSCOPIC STATIC DIELECTRIC TENSOR (including local field effects in DFT)
 ------------------------------------------------------
          10.335556     0.000000     0.000000
          -0.000000    10.335556     0.000000
           0.000000     0.000000     2.276580
 ------------------------------------------------------



--------------------------------------------------------------------------------------------------------


  LATTYP: Found a hexagonal cell.
 ALAT       =     3.3190066245
 C/A-ratio  =    15.0647484797
  
  Lattice vectors:
  
 A1 = (   3.3190066245,   0.0000000000,   0.0000000000)
 A2 = (  -1.6595033122,   2.8743440521,   0.0000000000)
 A3 = (   0.0000000000,   0.0000000000,  50.0000000000)


Analysis of symmetry for initial positions (statically):
=====================================================================
 Subroutine PRICEL returns:
 Original cell was already a primitive cell.
 

 Routine SETGRP: Setting up the symmetry group for a 
 hexagonal supercell.


 Subroutine GETGRP returns: Found 12 space group operations
 (whereof  4 operations were pure point group operations)
 out of a pool of 24 trial point group operations.


The static configuration has the point symmetry C_2v.
 The point group associated with its full space group is D_3h.


Analysis of symmetry for dynamics (positions and initial velocities):
=====================================================================
 Subroutine PRICEL returns:
 Original cell was already a primitive cell.
 

 Routine SETGRP: Setting up the symmetry group for a 
 hexagonal supercell.


 Subroutine GETGRP returns: Found 12 space group operations
 (whereof  4 operations were pure point group operations)
 out of a pool of 24 trial point group operations.


The dynamic configuration has the point symmetry C_2v.
 The point group associated with its full space group is D_3h.


 Subroutine INISYM returns: Found 12 space group operations
 (whereof  4 operations are pure point group operations),
 and found     1 'primitive' translations



--------------------------------------------------------------------------------------------------------




 MACROSCOPIC STATIC DIELECTRIC TENSOR (including local field effects in DFT)
 ------------------------------------------------------
          10.335556     0.000000     0.000000
          -0.000000    10.335556     0.000000
           0.000000     0.000000     2.276580
 ------------------------------------------------------


 PIEZOELECTRIC TENSOR  for field in x, y, z        (e  Angst)
          XX          YY          ZZ          XY          YZ          ZX
  --------------------------------------------------------------------------------
  x    -0.01345     0.01107    -0.00050    -0.97169     0.00000     0.00000
  y    -0.98551     0.99055     0.00211     0.00000     0.00000     0.00000
  z     0.00002     0.00002     0.00003    -0.00000     0.00000     0.00000

 PIEZOELECTRIC TENSOR  for field in x, y, z        (C/m^2)
          XX          YY          ZZ          XY          YZ          ZX
  --------------------------------------------------------------------------------
  x     0.00000     0.00000     0.00000    -0.03291     0.00000     0.00000
  y    -0.03291     0.03291    -0.00000    -0.00000     0.00000     0.00000
  z     0.00000     0.00000     0.00000     0.00000    -0.00000     0.00000
 
 BORN EFFECTIVE CHARGES (in e, cummulative output)
 -------------------------------------------------
 ion    1
    1    -1.12593    -0.00070     0.00001
    2     0.00000    -1.12665    -0.00002
    3     0.00000     0.00000   -47.03886
 ion    2
    1    -1.14017     0.00073     0.00002
    2    -0.00000    -1.13946    -0.00001
    3    -0.00000     0.00000   -12.46286
 ion    3
    1    -1.14524    -0.00072     0.00000
    2     0.00000    -1.14593     0.00000
    3     0.00000     0.00000    -1.83501
 ion    4
    1    -1.14017     0.00073    -0.00002
    2    -0.00000    -1.13946     0.00001
    3    -0.00000     0.00000   -12.46286
 ion    5
    1    -1.12593    -0.00070    -0.00001
    2     0.00000    -1.12665     0.00002
    3    -0.00000     0.00000   -47.03879
 ion    6
    1     0.58429    -0.00032    -0.00024
    2     0.00000     0.58465     0.00061
    3     0.00000     0.00000    -3.96813
 ion    7
    1     0.59223    -0.00034     0.00015
    2    -0.00000     0.59255    -0.00041
    3    -0.00000     0.00000     4.48836
 ion    8
    1     0.59157     0.00033    -0.00024
    2    -0.00000     0.59117     0.00061
    3     0.00000     0.00000    -0.14121
 ion    9
    1     0.59220     0.00034     0.00024
    2    -0.00000     0.59182    -0.00060
    3    -0.00000     0.00000     0.98825
 ion   10
    1     0.59148    -0.00033    -0.00024
    2     0.00000     0.59186     0.00062
    3     0.00000    -0.00000     0.93526
 ion   11
    1     0.59148    -0.00033     0.00024
    2     0.00000     0.59186    -0.00062
    3    -0.00000     0.00000     0.93526
 ion   12
    1     0.59220     0.00034    -0.00024
    2    -0.00000     0.59182     0.00060
    3     0.00000     0.00000     0.98826
 ion   13
    1     0.59157     0.00033     0.00024
    2    -0.00000     0.59117    -0.00061
    3    -0.00000    -0.00000    -0.14121
 ion   14
    1     0.59223    -0.00034    -0.00015
    2    -0.00000     0.59255     0.00041
    3     0.00000    -0.00000     4.48836
 ion   15
    1     0.58429    -0.00032     0.00024
    2     0.00000     0.58465    -0.00061
    3     0.00000     0.00000    -3.96814


--------------------------------------------------------------------------------------------------------


 writing wavefunctions
     LOOP+:  cpu time 1790.6678: real time 1795.4157
    4ORBIT:  cpu time    0.0000: real time    0.0000
 BZINTS: Fermi energy:  2.536762;130.000000 electrons
         Band energy:***********;  BLOECHL correction:  0.000000

 total amount of memory used by VASP on root node   147997. kBytes
========================================================================

   base      :      30000. kBytes
   nonl-proj :      96730. kBytes
   fftplans  :       1943. kBytes
   grid      :       7351. kBytes
   one-center:        486. kBytes
   wavefun   :      11487. kBytes
 
  
  
 General timing and accounting informations for this job:
 ========================================================
  
                  Total CPU time used (sec):     1793.575
                            User time (sec):     1756.853
                          System time (sec):       36.722
                         Elapsed time (sec):     1799.714
  
                   Maximum memory used (kb):      737016.
                   Average memory used (kb):           0.
  
                          Minor page faults:      9925560
                          Major page faults:            8
                 Voluntary context switches:         6344
