  12  12   0   0
  0.3974986E+02  0.3319007E-09  0.3319007E-09  0.5000000E-08  0.5000000E-15
  1.000000000000000E-004
  CAR 
 unknown system                          
     15.12649103    -77.61064651  301      1.06135850      1.00000000
    -77.611  0.0000E+00  0.0000E+00
    -77.302  0.0000E+00  0.0000E+00
    -76.992  0.0000E+00  0.0000E+00
    -76.683  0.0000E+00  0.0000E+00
    -76.374  0.0000E+00  0.0000E+00
    -76.065  0.0000E+00  0.0000E+00
    -75.756  0.0000E+00  0.0000E+00
    -75.447  0.0000E+00  0.0000E+00
    -75.138  0.0000E+00  0.0000E+00
    -74.829  0.0000E+00  0.0000E+00
    -74.519  0.0000E+00  0.0000E+00
    -74.210  0.0000E+00  0.0000E+00
    -73.901  0.0000E+00  0.0000E+00
    -73.592  0.0000E+00  0.0000E+00
    -73.283  0.0000E+00  0.8000E+01
    -72.974  0.0000E+00  0.8000E+01
    -72.665  0.0000E+00  0.8000E+01
    -72.356  0.0000E+00  0.8000E+01
    -72.046  0.0000E+00  0.8000E+01
    -71.737  0.0000E+00  0.8000E+01
    -71.428  0.0000E+00  0.8000E+01
    -71.119  0.0000E+00  0.8000E+01
    -70.810  0.0000E+00  0.8000E+01
    -70.501  0.0000E+00  0.8000E+01
    -70.192  0.0000E+00  0.8000E+01
    -69.883  0.0000E+00  0.8000E+01
    -69.573  0.0000E+00  0.8000E+01
    -69.264  0.0000E+00  0.8000E+01
    -68.955  0.0000E+00  0.8000E+01
    -68.646  0.0000E+00  0.8000E+01
    -68.337  0.0000E+00  0.8000E+01
    -68.028  0.0000E+00  0.8000E+01
    -67.719  0.0000E+00  0.8000E+01
    -67.410  0.0000E+00  0.8000E+01
    -67.100  0.0000E+00  0.8000E+01
    -66.791  0.0000E+00  0.8000E+01
    -66.482  0.0000E+00  0.8000E+01
    -66.173  0.0000E+00  0.8000E+01
    -65.864  0.0000E+00  0.8000E+01
    -65.555  0.0000E+00  0.8000E+01
    -65.246  0.0000E+00  0.8000E+01
    -64.937  0.0000E+00  0.8000E+01
    -64.627  0.0000E+00  0.8000E+01
    -64.318  0.0000E+00  0.8000E+01
    -64.009  0.0000E+00  0.8000E+01
    -63.700  0.0000E+00  0.8000E+01
    -63.391  0.0000E+00  0.8000E+01
    -63.082  0.0000E+00  0.8000E+01
    -62.773  0.0000E+00  0.8000E+01
    -62.464  0.0000E+00  0.8000E+01
    -62.154  0.0000E+00  0.8000E+01
    -61.845  0.0000E+00  0.8000E+01
    -61.536  0.0000E+00  0.8000E+01
    -61.227  0.0000E+00  0.8000E+01
    -60.918  0.0000E+00  0.8000E+01
    -60.609  0.0000E+00  0.8000E+01
    -60.300  0.0000E+00  0.8000E+01
    -59.991  0.0000E+00  0.8000E+01
    -59.681  0.0000E+00  0.8000E+01
    -59.372  0.0000E+00  0.8000E+01
    -59.063  0.0000E+00  0.8000E+01
    -58.754  0.0000E+00  0.8000E+01
    -58.445  0.0000E+00  0.8000E+01
    -58.136  0.0000E+00  0.8000E+01
    -57.827  0.0000E+00  0.8000E+01
    -57.518  0.0000E+00  0.8000E+01
    -57.208  0.0000E+00  0.8000E+01
    -56.899  0.0000E+00  0.8000E+01
    -56.590  0.0000E+00  0.8000E+01
    -56.281  0.0000E+00  0.8000E+01
    -55.972  0.0000E+00  0.8000E+01
    -55.663  0.0000E+00  0.8000E+01
    -55.354  0.0000E+00  0.8000E+01
    -55.045  0.0000E+00  0.8000E+01
    -54.735  0.0000E+00  0.8000E+01
    -54.426  0.0000E+00  0.8000E+01
    -54.117  0.0000E+00  0.8000E+01
    -53.808  0.0000E+00  0.8000E+01
    -53.499  0.0000E+00  0.8000E+01
    -53.190  0.0000E+00  0.8000E+01
    -52.881  0.0000E+00  0.8000E+01
    -52.572  0.0000E+00  0.8000E+01
    -52.262  0.0000E+00  0.8000E+01
    -51.953  0.0000E+00  0.8000E+01
    -51.644  0.0000E+00  0.8000E+01
    -51.335  0.0000E+00  0.8000E+01
    -51.026  0.0000E+00  0.8000E+01
    -50.717  0.0000E+00  0.8000E+01
    -50.408  0.0000E+00  0.8000E+01
    -50.099  0.0000E+00  0.8000E+01
    -49.790  0.0000E+00  0.8000E+01
    -49.480  0.0000E+00  0.8000E+01
    -49.171  0.0000E+00  0.8000E+01
    -48.862  0.0000E+00  0.8000E+01
    -48.553  0.0000E+00  0.8000E+01
    -48.244  0.0000E+00  0.8000E+01
    -47.935  0.0000E+00  0.8000E+01
    -47.626  0.0000E+00  0.8000E+01
    -47.317  0.0000E+00  0.8000E+01
    -47.007  0.0000E+00  0.8000E+01
    -46.698  0.0000E+00  0.8000E+01
    -46.389  0.0000E+00  0.8000E+01
    -46.080  0.0000E+00  0.8000E+01
    -45.771  0.0000E+00  0.8000E+01
    -45.462  0.0000E+00  0.8000E+01
    -45.153  0.0000E+00  0.8000E+01
    -44.844  0.0000E+00  0.8000E+01
    -44.534  0.0000E+00  0.8000E+01
    -44.225  0.0000E+00  0.8000E+01
    -43.916  0.0000E+00  0.8000E+01
    -43.607  0.0000E+00  0.8000E+01
    -43.298  0.0000E+00  0.8000E+01
    -42.989  0.0000E+00  0.8000E+01
    -42.680  0.0000E+00  0.8000E+01
    -42.371  0.0000E+00  0.8000E+01
    -42.061  0.0000E+00  0.8000E+01
    -41.752  0.0000E+00  0.8000E+01
    -41.443  0.0000E+00  0.8000E+01
    -41.134  0.0000E+00  0.8000E+01
    -40.825  0.0000E+00  0.8000E+01
    -40.516  0.0000E+00  0.8000E+01
    -40.207  0.0000E+00  0.8000E+01
    -39.898  0.0000E+00  0.8000E+01
    -39.588  0.0000E+00  0.8000E+01
    -39.279  0.0000E+00  0.8000E+01
    -38.970  0.0000E+00  0.8000E+01
    -38.661  0.0000E+00  0.8000E+01
    -38.352  0.0000E+00  0.8000E+01
    -38.043  0.0000E+00  0.8000E+01
    -37.734  0.0000E+00  0.8000E+01
    -37.425  0.0000E+00  0.3200E+02
    -37.115  0.0000E+00  0.3200E+02
    -36.806  0.0000E+00  0.3200E+02
    -36.497  0.0000E+00  0.3200E+02
    -36.188  0.0000E+00  0.3200E+02
    -35.879  0.0000E+00  0.3200E+02
    -35.570  0.0000E+00  0.3200E+02
    -35.261  0.0000E+00  0.3200E+02
    -34.952  0.0000E+00  0.3200E+02
    -34.642  0.0000E+00  0.3200E+02
    -34.333  0.0000E+00  0.3200E+02
    -34.024  0.0000E+00  0.3200E+02
    -33.715  0.0000E+00  0.3200E+02
    -33.406  0.0000E+00  0.3200E+02
    -33.097  0.0000E+00  0.3200E+02
    -32.788  0.0000E+00  0.3200E+02
    -32.479  0.0000E+00  0.3200E+02
    -32.169  0.0000E+00  0.3200E+02
    -31.860  0.0000E+00  0.3200E+02
    -31.551  0.0000E+00  0.3200E+02
    -31.242  0.0000E+00  0.3200E+02
    -30.933  0.0000E+00  0.3200E+02
    -30.624  0.0000E+00  0.3200E+02
    -30.315  0.0000E+00  0.3200E+02
    -30.006  0.0000E+00  0.3200E+02
    -29.696  0.0000E+00  0.3200E+02
    -29.387  0.0000E+00  0.3200E+02
    -29.078  0.0000E+00  0.3200E+02
    -28.769  0.0000E+00  0.3200E+02
    -28.460  0.0000E+00  0.3200E+02
    -28.151  0.0000E+00  0.3200E+02
    -27.842  0.0000E+00  0.3200E+02
    -27.533  0.0000E+00  0.3200E+02
    -27.223  0.0000E+00  0.3200E+02
    -26.914  0.0000E+00  0.3200E+02
    -26.605  0.0000E+00  0.3200E+02
    -26.296  0.0000E+00  0.3200E+02
    -25.987  0.0000E+00  0.3200E+02
    -25.678  0.0000E+00  0.3200E+02
    -25.369  0.0000E+00  0.3200E+02
    -25.060  0.0000E+00  0.3200E+02
    -24.750  0.0000E+00  0.3200E+02
    -24.441  0.0000E+00  0.3200E+02
    -24.132  0.0000E+00  0.3200E+02
    -23.823  0.0000E+00  0.3200E+02
    -23.514  0.0000E+00  0.3200E+02
    -23.205  0.0000E+00  0.3200E+02
    -22.896  0.0000E+00  0.3200E+02
    -22.587  0.0000E+00  0.3200E+02
    -22.277  0.0000E+00  0.3200E+02
    -21.968  0.0000E+00  0.3200E+02
    -21.659  0.0000E+00  0.3200E+02
    -21.350  0.0000E+00  0.3200E+02
    -21.041  0.0000E+00  0.3200E+02
    -20.732  0.0000E+00  0.3200E+02
    -20.423  0.0000E+00  0.3200E+02
    -20.114  0.0000E+00  0.3200E+02
    -19.804  0.0000E+00  0.3200E+02
    -19.495  0.0000E+00  0.3200E+02
    -19.186  0.0000E+00  0.3200E+02
    -18.877  0.0000E+00  0.3200E+02
    -18.568  0.0000E+00  0.3200E+02
    -18.259  0.0000E+00  0.3200E+02
    -17.950  0.0000E+00  0.3200E+02
    -17.641  0.0000E+00  0.3200E+02
    -17.332  0.0000E+00  0.3200E+02
    -17.022  0.0000E+00  0.3200E+02
    -16.713  0.0000E+00  0.3200E+02
    -16.404  0.0000E+00  0.3200E+02
    -16.095  0.0000E+00  0.3200E+02
    -15.786  0.0000E+00  0.3200E+02
    -15.477  0.0000E+00  0.3200E+02
    -15.168  0.0000E+00  0.3200E+02
    -14.859  0.0000E+00  0.3200E+02
    -14.549  0.0000E+00  0.3200E+02
    -14.240  0.0000E+00  0.3200E+02
    -13.931  0.1475E+01  0.3217E+02
    -13.622  0.2220E+01  0.3281E+02
    -13.313  0.2403E+01  0.3352E+02
    -13.004  0.2724E+01  0.3431E+02
    -12.695  0.6555E+01  0.3562E+02
    -12.386  0.9405E+01  0.3807E+02
    -12.076  0.1582E+02  0.4195E+02
    -11.767  0.1211E+02  0.4720E+02
    -11.458  0.0000E+00  0.4800E+02
    -11.149  0.0000E+00  0.4800E+02
    -10.840  0.0000E+00  0.4800E+02
    -10.531  0.0000E+00  0.4800E+02
    -10.222  0.0000E+00  0.4800E+02
     -9.913  0.0000E+00  0.4800E+02
     -9.603  0.0000E+00  0.4800E+02
     -9.294  0.0000E+00  0.4800E+02
     -8.985  0.0000E+00  0.4800E+02
     -8.676  0.0000E+00  0.4800E+02
     -8.367  0.0000E+00  0.4800E+02
     -8.058  0.0000E+00  0.4800E+02
     -7.749  0.0000E+00  0.4800E+02
     -7.440  0.0000E+00  0.4800E+02
     -7.130  0.0000E+00  0.4800E+02
     -6.821  0.0000E+00  0.4800E+02
     -6.512  0.0000E+00  0.4800E+02
     -6.203  0.0000E+00  0.4800E+02
     -5.894  0.3245E+00  0.4800E+02
     -5.585  0.2374E+01  0.4827E+02
     -5.276  0.5326E+01  0.4947E+02
     -4.967  0.7037E+01  0.5126E+02
     -4.657  0.8081E+01  0.5408E+02
     -4.348  0.1094E+02  0.5722E+02
     -4.039  0.7067E+01  0.5979E+02
     -3.730  0.9788E+01  0.6172E+02
     -3.421  0.8278E+01  0.6494E+02
     -3.112  0.4570E+01  0.6847E+02
     -2.803  0.5987E+01  0.7025E+02
     -2.494  0.1083E+02  0.7290E+02
     -2.184  0.9452E+01  0.7704E+02
     -1.875  0.6572E+01  0.7934E+02
     -1.566  0.1549E+02  0.8151E+02
     -1.257  0.1263E+02  0.8644E+02
     -0.948  0.9407E+01  0.9071E+02
     -0.639  0.9220E+01  0.9392E+02
     -0.330  0.5107E+01  0.9595E+02
     -0.021  0.1230E+02  0.9948E+02
      0.289  0.5852E+01  0.1023E+03
      0.598  0.2087E+01  0.1037E+03
      0.907  0.5067E+00  0.1040E+03
      1.216  0.0000E+00  0.1040E+03
      1.525  0.0000E+00  0.1040E+03
      1.834  0.0000E+00  0.1040E+03
      2.143  0.1460E+01  0.1041E+03
      2.452  0.5767E+01  0.1054E+03
      2.762  0.1090E+02  0.1079E+03
      3.071  0.1488E+02  0.1129E+03
      3.380  0.2038E+02  0.1186E+03
      3.689  0.9418E+01  0.1231E+03
      3.998  0.9034E+01  0.1259E+03
      4.307  0.4928E+01  0.1281E+03
      4.616  0.8124E+01  0.1298E+03
      4.925  0.7513E+01  0.1328E+03
      5.235  0.1798E+02  0.1350E+03
      5.544  0.6236E+01  0.1366E+03
      5.853  0.3344E+01  0.1376E+03
      6.162  0.4510E+01  0.1389E+03
      6.471  0.5481E+01  0.1405E+03
      6.780  0.5814E+01  0.1424E+03
      7.089  0.4949E+01  0.1440E+03
      7.398  0.8047E+01  0.1462E+03
      7.708  0.8219E+01  0.1485E+03
      8.017  0.7165E+01  0.1509E+03
      8.326  0.5447E+01  0.1531E+03
      8.635  0.7274E+01  0.1554E+03
      8.944  0.9169E+01  0.1580E+03
      9.253  0.1502E+02  0.1613E+03
      9.562  0.1052E+02  0.1654E+03
      9.871  0.2845E+01  0.1671E+03
     10.181  0.9514E+00  0.1675E+03
     10.490  0.7220E+00  0.1677E+03
     10.799  0.3879E+00  0.1679E+03
     11.108  0.0000E+00  0.1680E+03
     11.417  0.0000E+00  0.1680E+03
     11.726  0.0000E+00  0.1680E+03
     12.035  0.0000E+00  0.1680E+03
     12.344  0.0000E+00  0.1680E+03
     12.654  0.0000E+00  0.1680E+03
     12.963  0.0000E+00  0.1680E+03
     13.272  0.0000E+00  0.1680E+03
     13.581  0.0000E+00  0.1680E+03
     13.890  0.0000E+00  0.1680E+03
     14.199  0.0000E+00  0.1680E+03
     14.508  0.0000E+00  0.1680E+03
     14.817  0.0000E+00  0.1680E+03
     15.126  0.0000E+00  0.1680E+03
