       N       E                     dE             d eps       ncg     rms          rms(c)
DAV:   1     0.654903646607E+03    0.65490E+03   -0.43318E+04  7784   0.719E+02
DAV:   2    -0.625579824699E+02   -0.71746E+03   -0.70096E+03  9604   0.230E+02
DAV:   3    -0.103040521033E+03   -0.40483E+02   -0.40103E+02  8680   0.561E+01
DAV:   4    -0.103705429448E+03   -0.66491E+00   -0.66446E+00  8400   0.710E+00
DAV:   5    -0.103714958367E+03   -0.95289E-02   -0.95283E-02  8540   0.741E-01    0.153E+02
DAV:   6    -0.959872158934E+02    0.77277E+01   -0.30592E+01  6468   0.152E+01    0.141E+02
DAV:   7    -0.109901076140E+03   -0.13914E+02   -0.66757E+01  8092   0.218E+01    0.117E+02
DAV:   8    -0.942646170591E+02    0.15636E+02   -0.34927E+01  7476   0.157E+01    0.360E+00
DAV:   9    -0.946097256535E+02   -0.34511E+00   -0.35506E+00  8652   0.395E+00    0.997E+00
DAV:  10    -0.946042374253E+02    0.54882E-02   -0.27931E-02  8148   0.443E-01    0.721E+00
DAV:  11    -0.945921812805E+02    0.12056E-01   -0.81733E-03  8540   0.311E-01    0.310E+00
DAV:  12    -0.945840731000E+02    0.81082E-02   -0.17442E-02  8148   0.420E-01    0.483E-01
DAV:  13    -0.945840753160E+02   -0.22160E-05   -0.31570E-03  8120   0.129E-01    0.230E-01
DAV:  14    -0.945840167516E+02    0.58564E-04   -0.24027E-04  8792   0.444E-02    0.196E-01
DAV:  15    -0.945839806338E+02    0.36118E-04   -0.30399E-04  8120   0.452E-02    0.256E-01
DAV:  16    -0.945839885766E+02   -0.79429E-05   -0.20778E-05  7980   0.127E-02    0.114E-01
DAV:  17    -0.945839983633E+02   -0.97867E-05   -0.13779E-06  8568   0.283E-03    0.997E-02
DAV:  18    -0.945840649892E+02   -0.66626E-04   -0.72060E-06  7280   0.642E-03    0.831E-03
DAV:  19    -0.945841234644E+02   -0.58475E-04   -0.62306E-06  7840   0.551E-03    0.495E-02
DAV:  20    -0.945841683085E+02   -0.44844E-04   -0.37957E-06  7336   0.413E-03    0.379E-02
DAV:  21    -0.945841972456E+02   -0.28937E-04   -0.25342E-06  7364   0.340E-03    0.534E-03
DAV:  22    -0.945842084815E+02   -0.11236E-04   -0.19910E-07  8400   0.125E-03    0.285E-03
DAV:  23    -0.945842243427E+02   -0.15861E-04   -0.17745E-07  7532   0.108E-03    0.251E-03
DAV:  24    -0.945842277763E+02   -0.34335E-05   -0.27773E-08  7392   0.430E-04    0.149E-03
DAV:  25    -0.945842347591E+02   -0.69828E-05   -0.58303E-08  6468   0.535E-04    0.617E-04
DAV:  26    -0.945842361200E+02   -0.13609E-05   -0.59046E-09  6776   0.205E-04    0.722E-04
DAV:  27    -0.945842377181E+02   -0.15981E-05   -0.11277E-08  6048   0.269E-04    0.533E-04
DAV:  28    -0.945842383193E+02   -0.60116E-06   -0.21639E-09  5824   0.144E-04    0.156E-04
DAV:  29    -0.945842391138E+02   -0.79455E-06   -0.25185E-09  5432   0.179E-04    0.185E-04
DAV:  30    -0.945842393525E+02   -0.23866E-06   -0.37646E-10  5264   0.840E-05    0.109E-04
DAV:  31    -0.945842394505E+02   -0.97978E-07   -0.19329E-10  5180   0.566E-05    0.233E-05
DAV:  32    -0.945842394736E+02   -0.23099E-07   -0.22291E-11  5152   0.286E-05    0.174E-05
DAV:  33    -0.945842394789E+02   -0.52969E-08   -0.11464E-11  5460   0.135E-05
   1 F= -.97956908E+02 E0= -.97956908E+02  d E =0.000000E+00
 Linear response reoptimize wavefunctions
DAV:   1    -0.945842394800E+02    0.33727E+01    0.45217E-12  5264   0.153E-05
DAV:   2    -0.945842394802E+02   -0.13097E-09    0.29541E-11  5852   0.372E-06
DAV:   3    -0.945842394800E+02    0.13097E-09   -0.44171E-12  5796   0.112E-06
 Linear response G [H, r] |phi>, progress :
  Direction:   1
       N       E                     dE             d eps       ncg     rms
RMM:   1    -0.489739114749E+03   -0.48974E+03    0.18418E+03 15007   0.118E+02
RMM:   2    -0.465677886578E+03    0.24061E+02   -0.13478E+02 12741   0.253E+01
RMM:   3    -0.467320341836E+03   -0.16425E+01   -0.56064E+00 13699   0.500E+00
RMM:   4    -0.467387381529E+03   -0.67040E-01   -0.32084E-01 14538   0.937E-01
RMM:   5    -0.467389923809E+03   -0.25423E-02   -0.64988E-02 14774   0.241E-01
RMM:   6    -0.467389956791E+03   -0.32982E-04   -0.46704E-02 15833   0.590E-02
RMM:   7    -0.467390858422E+03   -0.90163E-03   -0.54621E-02 15794   0.192E-02
RMM:   8    -0.467391159951E+03   -0.30153E-03   -0.57548E-02 16801   0.797E-03
RMM:   9    -0.467391445120E+03   -0.28517E-03   -0.60394E-02 16841   0.554E-03
RMM:  10    -0.467391245461E+03    0.19966E-03   -0.58397E-02 16720   0.503E-03
RMM:  11    -0.467391463471E+03   -0.21801E-03   -0.60577E-02 16278   0.497E-03
RMM:  12    -0.467391206281E+03    0.25719E-03   -0.58005E-02 16012   0.496E-03
 Linear response G [H, r] |phi>, progress :
  Direction:   2
       N       E                     dE             d eps       ncg     rms
RMM:   1    -0.500002997718E+03   -0.50000E+03    0.16231E+03 14985   0.118E+02
RMM:   2    -0.490308218140E+03    0.96948E+01   -0.14163E+02 12544   0.251E+01
RMM:   3    -0.491409893296E+03   -0.11017E+01   -0.61907E+00 13611   0.490E+00
RMM:   4    -0.491480461964E+03   -0.70569E-01   -0.71122E-01 14469   0.923E-01
RMM:   5    -0.491492176888E+03   -0.11715E-01   -0.55666E-01 14713   0.225E-01
RMM:   6    -0.491512839493E+03   -0.20663E-01   -0.74765E-01 15657   0.575E-02
RMM:   7    -0.491544160645E+03   -0.31321E-01   -0.10599E+00 15709   0.180E-02
RMM:   8    -0.491531684473E+03    0.12476E-01   -0.93506E-01 16596   0.751E-03
RMM:   9    -0.491548856153E+03   -0.17172E-01   -0.11068E+00 16713   0.505E-03
RMM:  10    -0.491531070676E+03    0.17785E-01   -0.92892E-01 16627   0.451E-03
RMM:  11    -0.491548687032E+03   -0.17616E-01   -0.11051E+00 16190   0.443E-03
RMM:  12    -0.491531633480E+03    0.17054E-01   -0.93455E-01 15929   0.442E-03
 Linear response G [H, r] |phi>, progress :
  Direction:   3
       N       E                     dE             d eps       ncg     rms
RMM:   1    -0.512099280345E+03   -0.51210E+03    0.18907E+03 14782   0.121E+02
RMM:   2    -0.480267323391E+03    0.31832E+02   -0.15447E+02 12436   0.257E+01
RMM:   3    -0.481791270079E+03   -0.15239E+01   -0.78045E+00 13395   0.549E+00
RMM:   4    -0.481899722066E+03   -0.10845E+00   -0.36970E-01 14275   0.104E+00
RMM:   5    -0.481902039361E+03   -0.23173E-02   -0.22764E-02 14184   0.248E-01
RMM:   6    -0.481902335396E+03   -0.29603E-03   -0.12485E-03 15446   0.582E-02
RMM:   7    -0.481902346411E+03   -0.11015E-04   -0.12389E-04 15541   0.169E-02
RMM:   8    -0.481902346772E+03   -0.36133E-06   -0.26837E-05 16423   0.585E-03
RMM:   9    -0.481902347002E+03   -0.23013E-06   -0.22625E-05 16432   0.339E-03
RMM:  10    -0.481902346980E+03    0.22073E-07   -0.21969E-05 16254   0.290E-03
RMM:  11    -0.481902347080E+03   -0.99961E-07   -0.22944E-05 15800   0.284E-03
RMM:  12    -0.481902347009E+03    0.70836E-07   -0.22238E-05 15537   0.283E-03
 Linear response to external field (no local field effect), progress :
  Direction:   1
       N       E                     dE             d eps       ncg     rms          rms(c)
RMM:   1    -0.847411309713E+01   -0.84741E+01   -0.53816E+01 16456   0.511E+00
RMM:   2    -0.104601384413E+02   -0.19860E+01   -0.40372E-01 11736   0.105E+00
RMM:   3    -0.104726311056E+02   -0.12493E-01   -0.44767E-02 12665   0.224E-01
RMM:   4    -0.104730893945E+02   -0.45829E-03   -0.17419E-03 13272   0.458E-02
RMM:   5    -0.104731089579E+02   -0.19563E-04   -0.74389E-05 13177   0.978E-03
RMM:   6    -0.104731097291E+02   -0.77119E-06   -0.38864E-06 12416   0.225E-03
RMM:   7    -0.104731097482E+02   -0.19115E-07   -0.19368E-07 12398   0.577E-04
RMM:   8    -0.104731097496E+02   -0.14073E-08   -0.37292E-08 11807   0.180E-04
 Linear response to external field (no local field effect), progress :
  Direction:   2
       N       E                     dE             d eps       ncg     rms          rms(c)
RMM:   1    -0.864618614242E+01   -0.86462E+01   -0.53698E+01 16141   0.521E+00
RMM:   2    -0.100704540454E+02   -0.14243E+01   -0.40582E-01 11772   0.110E+00
RMM:   3    -0.100828752551E+02   -0.12421E-01   -0.37771E-02 12670   0.234E-01
RMM:   4    -0.100832904758E+02   -0.41522E-03   -0.17224E-03 13260   0.469E-02
RMM:   5    -0.100833096580E+02   -0.19182E-04   -0.82621E-05 13054   0.104E-02
RMM:   6    -0.100833103778E+02   -0.71987E-06   -0.34722E-06 12399   0.227E-03
RMM:   7    -0.100833104067E+02   -0.28866E-07   -0.25651E-07 12364   0.606E-04
RMM:   8    -0.100833104085E+02   -0.17740E-08   -0.62224E-08 11988   0.185E-04
 Linear response to external field (no local field effect), progress :
  Direction:   3
       N       E                     dE             d eps       ncg     rms          rms(c)
RMM:   1    -0.570537416413E+01   -0.57054E+01   -0.28978E+01 16163   0.475E+00
RMM:   2    -0.631453829697E+01   -0.60916E+00   -0.21440E-01 11247   0.905E-01
RMM:   3    -0.631869405689E+01   -0.41558E-02   -0.15732E-02 12380   0.184E-01
RMM:   4    -0.631886770624E+01   -0.17365E-03   -0.63751E-04 12987   0.358E-02
RMM:   5    -0.631887773550E+01   -0.10029E-04   -0.29918E-05 12642   0.781E-03
RMM:   6    -0.631887815141E+01   -0.41591E-06   -0.17378E-06 12061   0.182E-03
RMM:   7    -0.631887817704E+01   -0.25636E-07   -0.15203E-07 11950   0.496E-04
RMM:   8    -0.631887817902E+01   -0.19787E-08   -0.42812E-08 11071   0.161E-04
 Linear response to external field, progress :
  Direction:   1
       N       E                     dE             d eps       ncg     rms          rms(c)
RMM:   1    -0.857046712682E+01   -0.85705E+01   -0.53860E+01 39767   0.512E+00
RMM:   2    -0.102653874498E+02   -0.16949E+01   -0.39610E-01 28810   0.105E+00    0.552E+00
RMM:   3    -0.998965470853E+01    0.27573E+00   -0.27677E-01 28229   0.144E+00    0.311E+00
RMM:   4    -0.101907414872E+02   -0.20109E+00   -0.22557E-01 26800   0.143E+00    0.781E-01
RMM:   5    -0.102653883867E+02   -0.74647E-01   -0.55196E-03 28113   0.253E-01    0.781E-02
RMM:   6    -0.102719103173E+02   -0.65219E-02   -0.21932E-03 30594   0.446E-02    0.447E-02
RMM:   7    -0.102748755216E+02   -0.29652E-02    0.19770E-03 28964   0.220E-02    0.138E-02
RMM:   8    -0.102767163150E+02   -0.18408E-02   -0.16979E-03 29511   0.592E-03    0.527E-03
RMM:   9    -0.102771852838E+02   -0.46897E-03    0.17779E-04 28326   0.380E-03    0.204E-03
RMM:  10    -0.102772520567E+02   -0.66773E-04    0.88568E-05 28495   0.114E-03    0.776E-04
RMM:  11    -0.102773250706E+02   -0.73014E-04   -0.56617E-05 27764   0.523E-04    0.260E-04
RMM:  12    -0.102773269848E+02   -0.19142E-05   -0.43944E-07 28598   0.153E-04    0.112E-04
RMM:  13    -0.102773274036E+02   -0.41878E-06    0.47244E-06 25071   0.859E-05    0.500E-05
RMM:  14    -0.102773268838E+02    0.51972E-06    0.57634E-06 22425   0.815E-05    0.160E-05
RMM:  15    -0.102773272903E+02   -0.40645E-06   -0.28335E-07 15636   0.642E-05    0.574E-06
 Linear response to external field, progress :
  Direction:   2
       N       E                     dE             d eps       ncg     rms          rms(c)
RMM:   1    -0.857616135727E+01   -0.85762E+01   -0.53917E+01 39874   0.512E+00
RMM:   2    -0.102653438954E+02   -0.16892E+01   -0.40405E-01 28795   0.107E+00    0.552E+00
RMM:   3    -0.999051724762E+01    0.27483E+00   -0.27628E-01 28373   0.145E+00    0.312E+00
RMM:   4    -0.101925404721E+02   -0.20202E+00   -0.23981E-01 27035   0.143E+00    0.779E-01
RMM:   5    -0.102634821033E+02   -0.70942E-01    0.15904E-03 28391   0.250E-01    0.887E-02
RMM:   6    -0.102726946082E+02   -0.92125E-02   -0.12719E-02 30713   0.462E-02    0.534E-02
RMM:   7    -0.102730332710E+02   -0.33866E-03    0.59740E-03 30415   0.152E-02    0.260E-02
RMM:   8    -0.102766136253E+02   -0.35804E-02   -0.17190E-03 27391   0.124E-02    0.541E-03
RMM:   9    -0.102772081367E+02   -0.59451E-03   -0.33959E-04 28268   0.444E-03    0.239E-03
RMM:  10    -0.102772567377E+02   -0.48601E-04   -0.69950E-06 29524   0.109E-03    0.125E-03
RMM:  11    -0.102772809098E+02   -0.24172E-04    0.65267E-05 28353   0.518E-04    0.601E-04
RMM:  12    -0.102773066260E+02   -0.25716E-04    0.47252E-05 27305   0.249E-04    0.162E-04
RMM:  13    -0.102773141857E+02   -0.75597E-05    0.24734E-05 28055   0.113E-04    0.464E-05
RMM:  14    -0.102773161714E+02   -0.19857E-05    0.64106E-07 21412   0.757E-05    0.119E-05
RMM:  15    -0.102773160802E+02    0.91233E-07    0.12330E-06 16675   0.676E-05    0.477E-06
 Linear response to external field, progress :
  Direction:   3
       N       E                     dE             d eps       ncg     rms          rms(c)
RMM:   1    -0.570537416413E+01   -0.57054E+01   -0.28978E+01 16163   0.475E+00
RMM:   2    -0.631453829697E+01   -0.60916E+00   -0.21440E-01 11247   0.905E-01    0.522E+00
RMM:   3    -0.184282713092E+01    0.44717E+01   -0.51365E+00 10844   0.317E+00    0.223E+00
RMM:   4    -0.148817523376E+01    0.35465E+00   -0.79942E-01 11155   0.861E-01    0.964E-01
RMM:   5    -0.130538705358E+01    0.18279E+00   -0.63841E-01 11141   0.489E-01    0.653E-01
RMM:   6    -0.119383256788E+01    0.11155E+00   -0.57545E-01 11041   0.392E-01    0.381E-01
RMM:   7    -0.114551141833E+01    0.48321E-01   -0.41089E-01 11282   0.189E-01    0.227E-01
RMM:   8    -0.111998220065E+01    0.25529E-01   -0.27491E-01 11200   0.128E-01    0.771E-02
RMM:   9    -0.110548030628E+01    0.14502E-01   -0.14925E-01 11216   0.615E-02    0.668E-02
RMM:  10    -0.109732703092E+01    0.81533E-02   -0.76915E-02 10139   0.343E-02    0.299E-02
RMM:  11    -0.109370354849E+01    0.36235E-02   -0.39033E-02 10287   0.194E-02    0.179E-02
RMM:  12    -0.109213272833E+01    0.15708E-02   -0.17123E-02  9928   0.211E-02    0.843E-03
RMM:  13    -0.109149716786E+01    0.63556E-03   -0.67895E-03 10384   0.119E-02    0.655E-03
RMM:  14    -0.109134545485E+01    0.15171E-03   -0.23682E-03 10553   0.759E-03    0.291E-03
RMM:  15    -0.109113270006E+01    0.21275E-03    0.34716E-04 10549   0.476E-03    0.148E-03
RMM:  16    -0.109101685493E+01    0.11585E-03    0.15421E-03 10424   0.501E-03    0.826E-04
RMM:  17    -0.109095197183E+01    0.64883E-04    0.20368E-03 10990   0.184E-03    0.438E-04
RMM:  18    -0.109090398808E+01    0.47984E-04    0.23623E-03 10625   0.132E-03    0.179E-04
RMM:  19    -0.109087752984E+01    0.26458E-04    0.25900E-03 10659   0.293E-04    0.108E-04
RMM:  20    -0.109086985856E+01    0.76713E-05    0.26392E-03  9717   0.363E-04    0.467E-05
RMM:  21    -0.109086740759E+01    0.24510E-05    0.26647E-03  9812   0.125E-04    0.235E-05
RMM:  22    -0.109087590491E+01   -0.84973E-05    0.25870E-03  8961   0.856E-05    0.130E-05
RMM:  23    -0.109089083642E+01   -0.14932E-04    0.24349E-03  6712   0.360E-05    0.599E-06
