 vasp.5.4.1 24Jun15 (build Apr 13 2016 13:07:19) complex                        
  
 executed on           IFC91_ompi date 2019.09.13  23:59:33
 running on   28 total cores
 distrk:  each k-point on   28 cores,    1 groups
 distr:  one band on NCORES_PER_BAND=   1 cores,   28 groups


--------------------------------------------------------------------------------------------------------


 INCAR:
 POTCAR:    PAW_PBE W_sv_GW 23Mar2010             
 POTCAR:    PAW_PBE Se_GW 20Mar2012               

 ----------------------------------------------------------------------------- 
|                                                                             |
|           W    W    AA    RRRRR   N    N  II  N    N   GGGG   !!!           |
|           W    W   A  A   R    R  NN   N  II  NN   N  G    G  !!!           |
|           W    W  A    A  R    R  N N  N  II  N N  N  G       !!!           |
|           W WW W  AAAAAA  RRRRR   N  N N  II  N  N N  G  GGG   !            |
|           WW  WW  A    A  R   R   N   NN  II  N   NN  G    G                |
|           W    W  A    A  R    R  N    N  II  N    N   GGGG   !!!           |
|                                                                             |
|      For optimal performance we recommend to set                            |
|        NCORE= 4 - approx SQRT( number of cores)                             |
|      NCORE specifies how many cores store one orbital (NPAR=cpu/NCORE).     |
|      This setting can  greatly improve the performance of VASP for DFT.     |
|      The default, NPAR=number of cores might be grossly inefficient         |
|      on modern multi-core architectures or massively parallel machines.     |
|      Do your own testing !!!!                                               |
|      Unfortunately you need to use the default for GW and RPA calculations. |
|      (for HF NCORE is supported but not extensively tested yet)             |
|                                                                             |
 ----------------------------------------------------------------------------- 

 POTCAR:    PAW_PBE W_sv_GW 23Mar2010             
   VRHFIN =W: 5p6s5d                                                            
   LEXCH  = PE                                                                  
   EATOM  =  1863.8917 eV,  136.9922 Ry                                         
                                                                                
   TITEL  = PAW_PBE W_sv_GW 23Mar2010                                           
   LULTRA =        F    use ultrasoft PP ?                                      
   IUNSCR =        1    unscreen: 0-lin 1-nonlin 2-no                           
   RPACOR =    1.500    partial core radius                                     
   POMASS =  183.850; ZVAL   =   14.000    mass and valenz                      
   RCORE  =    2.300    outmost cutoff radius                                   
   RWIGS  =    2.600; RWIGS  =    1.376    wigner-seitz radius (au A)           
   ENMAX  =  317.132; ENMIN  =  237.849 eV                                      
   RCLOC  =    1.609    cutoff for local pot                                    
   LCOR   =        T    correct aug charges                                     
   LPAW   =        T    paw PP                                                  
   EAUG   =  807.757                                                            
   DEXC   =    0.000                                                            
   RMAX   =    2.349    core radius for proj-oper                               
   RAUG   =    1.300    factor for augmentation sphere                          
   RDEP   =    2.382    radius for radial grids                                 
   RDEPT  =    1.832    core radius for aug-charge                              
                                                                                
   Atomic configuration                                                         
   14 entries                                                                   
     n  l   j            E        occ.                                          
     1  0  0.50    -69464.1497   2.0000                                         
     2  0  0.50    -11984.7400   2.0000                                         
     2  1  1.50    -10478.3405   6.0000                                         
     3  0  0.50     -2757.5605   2.0000                                         
     3  1  1.50     -2311.6706   6.0000                                         
     3  2  2.50     -1799.5973  10.0000                                         
     4  0  0.50      -566.1609   2.0000                                         
     4  1  1.50      -419.9482   6.0000                                         
     4  2  2.50      -234.8191  10.0000                                         
     4  3  3.50       -29.7363  14.0000                                         
     5  0  0.50       -75.5905   2.0000                                         
     5  1  1.50       -39.9756   6.0000                                         
     5  2  2.50        -2.4479   6.0000                                         
     5  3  2.50        -1.3606   0.0000                                         
   Description                                                                  
     l       E           TYP  RCUT    TYP  RCUT                                 
     0    -75.5905419     23  1.500                                             
     0    -76.9511245     23  1.500                                             
     0    108.8466080     23  1.500                                             
     1    -39.9756040     23  1.800                                             
     1     68.0291300     23  1.800                                             
     2     -2.4478587     23  2.150                                             
     2     -0.0030619     23  2.150                                             
     3      4.0817478     23  2.300                                             
  local pseudopotential read in
  partial core-charges read in
  partial kinetic energy density read in
  kinetic energy density of atom read in
  atomic valenz-charges read in
  non local Contribution for L=           0  read in
    real space projection operators read in
  non local Contribution for L=           0  read in
    real space projection operators read in
  non local Contribution for L=           0  read in
    real space projection operators read in
  non local Contribution for L=           1  read in
    real space projection operators read in
  non local Contribution for L=           1  read in
    real space projection operators read in
  non local Contribution for L=           2  read in
    real space projection operators read in
  non local Contribution for L=           2  read in
    real space projection operators read in
  non local Contribution for L=           3  read in
    real space projection operators read in
    PAW grid and wavefunctions read in
 
   number of l-projection  operators is LMAX  =           8
   number of lm-projection operators is LMMAX =          26
 
 POTCAR:    PAW_PBE Se_GW 20Mar2012               
   VRHFIN =Se: s2p4                                                             
   LEXCH  = PE                                                                  
   EATOM  =   257.1286 eV,   18.8984 Ry                                         
                                                                                
   TITEL  = PAW_PBE Se_GW 20Mar2012                                             
   LULTRA =        F    use ultrasoft PP ?                                      
   IUNSCR =        1    unscreen: 0-lin 1-nonlin 2-no                           
   RPACOR =    1.900    partial core radius                                     
   POMASS =   78.960; ZVAL   =    6.000    mass and valenz                      
   RCORE  =    2.100    outmost cutoff radius                                   
   RWIGS  =    2.200; RWIGS  =    1.164    wigner-seitz radius (au A)           
   ENMAX  =  211.555; ENMIN  =  158.666 eV                                      
   ICORE  =        3    local potential                                         
   LCOR   =        T    correct aug charges                                     
   LPAW   =        T    paw PP                                                  
   EAUG   =  446.842                                                            
   DEXC   =    0.000                                                            
   RMAX   =    2.147    core radius for proj-oper                               
   RAUG   =    1.300    factor for augmentation sphere                          
   RDEP   =    2.177    radius for radial grids                                 
   RDEPT  =    1.928    core radius for aug-charge                              
                                                                                
   Atomic configuration                                                         
   10 entries                                                                   
     n  l   j            E        occ.                                          
     1  0  0.50    -12503.4788   2.0000                                         
     2  0  0.50     -1606.9547   2.0000                                         
     2  1  1.50     -1413.3140   6.0000                                         
     3  0  0.50      -213.4885   2.0000                                         
     3  1  1.50      -152.9538   6.0000                                         
     3  2  2.50       -53.1221  10.0000                                         
     4  0  0.50       -17.2865   2.0000                                         
     4  1  0.50        -6.5110   4.0000                                         
     4  2  2.50        -6.8029   0.0000                                         
     4  3  2.50        -6.8029   0.0000                                         
   Description                                                                  
     l       E           TYP  RCUT    TYP  RCUT                                 
     0    -17.2865391     23  2.100                                             
     0     68.0291300     23  2.100                                             
     1     -6.5110285     23  2.100                                             
     1     81.6349560     23  2.100                                             
     2     -6.8029130     23  2.100                                             
     3     -1.3605826      7  2.100                                             
  local pseudopotential read in
  partial core-charges read in
  partial kinetic energy density read in
  kinetic energy density of atom read in
  atomic valenz-charges read in
  non local Contribution for L=           0  read in
    real space projection operators read in
  non local Contribution for L=           0  read in
    real space projection operators read in
  non local Contribution for L=           1  read in
    real space projection operators read in
  non local Contribution for L=           1  read in
    real space projection operators read in
  non local Contribution for L=           2  read in
    real space projection operators read in
    PAW grid and wavefunctions read in
 
   number of l-projection  operators is LMAX  =           5
   number of lm-projection operators is LMMAX =          13
 
  PAW_PBE W_sv_GW 23Mar2010             :
 energy of atom  1       EATOM=-1863.8917
 kinetic energy error for atom=    0.2291 (will be added to EATOM!!)
  PAW_PBE Se_GW 20Mar2012               :
 energy of atom  2       EATOM= -257.1286
 kinetic energy error for atom=    0.0039 (will be added to EATOM!!)
 
 
 POSCAR:  W Se                                   
  positions in cartesian coordinates
  No initial velocities read in
 exchange correlation table for  LEXCH =        8
   RHO(1)=    0.500       N(1)  =     2000
   RHO(2)=  100.500       N(2)  =     4000
 


--------------------------------------------------------------------------------------------------------


 ion  position               nearest neighbor table
   1  0.167  0.333  0.305-   5 2.55   6 2.55   5 2.55   6 2.55   5 2.55   6 2.55
   2  0.833  0.667  0.435-   7 2.55   8 2.55   7 2.55   8 2.55   7 2.55   8 2.55
   3  0.167  0.333  0.565-   9 2.55  10 2.55   9 2.55  10 2.55   9 2.55  10 2.55
   4  0.833  0.667  0.695-  11 2.55  12 2.55  11 2.55  12 2.55  11 2.55  12 2.55
   5  0.833  0.667  0.339-   1 2.55   1 2.55   1 2.55
   6  0.833  0.667  0.272-   1 2.55   1 2.55   1 2.55
   7  0.167  0.333  0.469-   2 2.55   2 2.55   2 2.55
   8  0.167  0.333  0.402-   2 2.55   2 2.55   2 2.55
   9  0.833  0.667  0.598-   3 2.55   3 2.55   3 2.55
  10  0.833  0.667  0.531-   3 2.55   3 2.55   3 2.55
  11  0.167  0.333  0.728-   4 2.55   4 2.55   4 2.55
  12  0.167  0.333  0.661-   4 2.55   4 2.55   4 2.55
 
  LATTYP: Found a hexagonal cell.
 ALAT       =     3.3190066245
 C/A-ratio  =    15.0647484797
  
  Lattice vectors:
  
 A1 = (   3.3190066245,   0.0000000000,   0.0000000000)
 A2 = (  -1.6595033122,   2.8743440521,   0.0000000000)
 A3 = (   0.0000000000,   0.0000000000,  50.0000000000)


Analysis of symmetry for initial positions (statically):
=====================================================================
 Subroutine PRICEL returns:
 Original cell was already a primitive cell.
 

 Routine SETGRP: Setting up the symmetry group for a 
 hexagonal supercell.


 Subroutine GETGRP returns: Found 12 space group operations
 (whereof  4 operations were pure point group operations)
 out of a pool of 24 trial point group operations.


The static configuration has the point symmetry C_2h.
 The point group associated with its full space group is D_3d.


Analysis of symmetry for dynamics (positions and initial velocities):
=====================================================================
 Subroutine PRICEL returns:
 Original cell was already a primitive cell.
 

 Routine SETGRP: Setting up the symmetry group for a 
 hexagonal supercell.


 Subroutine GETGRP returns: Found 12 space group operations
 (whereof  4 operations were pure point group operations)
 out of a pool of 24 trial point group operations.


The dynamic configuration has the point symmetry C_2h.
 The point group associated with its full space group is D_3d.


 Subroutine INISYM returns: Found 12 space group operations
 (whereof  4 operations are pure point group operations),
 and found     1 'primitive' translations

 
 
 KPOINTS: KPOINTS created by Atomic Simulation Env

Automatic generation of k-mesh.
Space group operators:
 irot       det(A)        alpha          n_x          n_y          n_z        tau_x        tau_y        tau_z
    1     1.000000     0.000000     1.000000     0.000000     0.000000     0.000000     0.000000     0.000000
    2    -1.000000     0.000000     1.000000     0.000000     0.000000     0.000000     0.000000     0.000000
    3     1.000000   180.000000     1.000000     0.000000     0.000000     0.000000     0.000000     0.000000
    4    -1.000000   180.000000     1.000000     0.000000     0.000000     0.000000     0.000000     0.000000
    5     1.000000   120.000000     0.000000     0.000000    -1.000000     0.500000     0.500000     0.000000
    6    -1.000000   120.000000     0.000000     0.000000    -1.000000     0.500000     0.500000     0.000000
    7     1.000000   120.000000     0.000000     0.000000     1.000000     0.000000     0.500000     0.000000
    8    -1.000000   120.000000     0.000000     0.000000     1.000000     0.000000     0.500000     0.000000
    9     1.000000   180.000000     0.500000    -0.866025     0.000000    -0.000000     0.500000     0.000000
   10    -1.000000   180.000000     0.500000    -0.866025     0.000000    -0.000000     0.500000     0.000000
   11     1.000000   180.000000    -0.500000    -0.866025     0.000000     0.500000     0.500000     0.000000
   12    -1.000000   180.000000    -0.500000    -0.866025     0.000000     0.500000     0.500000     0.000000
 
 Subroutine IBZKPT returns following result:
 ===========================================
 
 Found     37 irreducible k-points:
 
 Following reciprocal coordinates:
            Coordinates               Weight
  0.000000  0.000000  0.000000      1.000000
  0.055556  0.000000  0.000000      6.000000
  0.111111  0.000000  0.000000      6.000000
  0.166667  0.000000  0.000000      6.000000
  0.222222  0.000000  0.000000      6.000000
  0.277778  0.000000  0.000000      6.000000
  0.333333  0.000000  0.000000      6.000000
  0.388889  0.000000  0.000000      6.000000
  0.444444  0.000000  0.000000      6.000000
  0.500000  0.000000  0.000000      3.000000
  0.055556  0.055556  0.000000      6.000000
  0.111111  0.055556  0.000000     12.000000
  0.166667  0.055556  0.000000     12.000000
  0.222222  0.055556  0.000000     12.000000
  0.277778  0.055556  0.000000     12.000000
  0.333333  0.055556  0.000000     12.000000
  0.388889  0.055556  0.000000     12.000000
  0.444444  0.055556  0.000000     12.000000
  0.111111  0.111111  0.000000      6.000000
  0.166667  0.111111  0.000000     12.000000
  0.222222  0.111111  0.000000     12.000000
  0.277778  0.111111  0.000000     12.000000
  0.333333  0.111111  0.000000     12.000000
  0.388889  0.111111  0.000000     12.000000
  0.444444  0.111111  0.000000      6.000000
  0.166667  0.166667  0.000000      6.000000
  0.222222  0.166667  0.000000     12.000000
  0.277778  0.166667  0.000000     12.000000
  0.333333  0.166667  0.000000     12.000000
  0.388889  0.166667  0.000000     12.000000
  0.222222  0.222222  0.000000      6.000000
  0.277778  0.222222  0.000000     12.000000
  0.333333  0.222222  0.000000     12.000000
  0.388889  0.222222  0.000000      6.000000
  0.277778  0.277778  0.000000      6.000000
  0.333333  0.277778  0.000000     12.000000
  0.333333  0.333333  0.000000      2.000000
 
 Following cartesian coordinates:
            Coordinates               Weight
  0.000000  0.000000  0.000000      1.000000
  0.016739  0.009664  0.000000      6.000000
  0.033477  0.019328  0.000000      6.000000
  0.050216  0.028992  0.000000      6.000000
  0.066954  0.038656  0.000000      6.000000
  0.083693  0.048320  0.000000      6.000000
  0.100432  0.057984  0.000000      6.000000
  0.117170  0.067648  0.000000      6.000000
  0.133909  0.077312  0.000000      6.000000
  0.150647  0.086976  0.000000      3.000000
  0.016739  0.028992  0.000000      6.000000
  0.033477  0.038656  0.000000     12.000000
  0.050216  0.048320  0.000000     12.000000
  0.066954  0.057984  0.000000     12.000000
  0.083693  0.067648  0.000000     12.000000
  0.100432  0.077312  0.000000     12.000000
  0.117170  0.086976  0.000000     12.000000
  0.133909  0.096640  0.000000     12.000000
  0.033477  0.057984  0.000000      6.000000
  0.050216  0.067648  0.000000     12.000000
  0.066954  0.077312  0.000000     12.000000
  0.083693  0.086976  0.000000     12.000000
  0.100432  0.096640  0.000000     12.000000
  0.117170  0.106304  0.000000     12.000000
  0.133909  0.115968  0.000000      6.000000
  0.050216  0.086976  0.000000      6.000000
  0.066954  0.096640  0.000000     12.000000
  0.083693  0.106304  0.000000     12.000000
  0.100432  0.115968  0.000000     12.000000
  0.117170  0.125633  0.000000     12.000000
  0.066954  0.115968  0.000000      6.000000
  0.083693  0.125633  0.000000     12.000000
  0.100432  0.135297  0.000000     12.000000
  0.117170  0.144961  0.000000      6.000000
  0.083693  0.144961  0.000000      6.000000
  0.100432  0.154625  0.000000     12.000000
  0.100432  0.173953  0.000000      2.000000
 
 TETIRR: Found    169 inequivalent tetrahedra from     1944
 
 Subroutine IBZKPT_HF returns following result:
 ==============================================
 
 Found    324 k-points in 1st BZ
 the following    324 k-points will be used (e.g. in the exchange kernel)
 Following reciprocal coordinates:   # in IRBZ
  0.000000  0.000000  0.000000    0.00308642   1 t-inv F
  0.055556  0.000000  0.000000    0.00308642   2 t-inv F
  0.111111  0.000000  0.000000    0.00308642   3 t-inv F
  0.166667  0.000000  0.000000    0.00308642   4 t-inv F
  0.222222  0.000000  0.000000    0.00308642   5 t-inv F
  0.277778  0.000000  0.000000    0.00308642   6 t-inv F
  0.333333  0.000000  0.000000    0.00308642   7 t-inv F
  0.388889  0.000000  0.000000    0.00308642   8 t-inv F
  0.444444  0.000000  0.000000    0.00308642   9 t-inv F
  0.500000  0.000000  0.000000    0.00308642  10 t-inv F
  0.055556  0.055556  0.000000    0.00308642  11 t-inv F
  0.111111  0.055556  0.000000    0.00308642  12 t-inv F
  0.166667  0.055556  0.000000    0.00308642  13 t-inv F
  0.222222  0.055556  0.000000    0.00308642  14 t-inv F
  0.277778  0.055556  0.000000    0.00308642  15 t-inv F
  0.333333  0.055556  0.000000    0.00308642  16 t-inv F
  0.388889  0.055556  0.000000    0.00308642  17 t-inv F
  0.444444  0.055556  0.000000    0.00308642  18 t-inv F
  0.111111  0.111111  0.000000    0.00308642  19 t-inv F
  0.166667  0.111111  0.000000    0.00308642  20 t-inv F
  0.222222  0.111111  0.000000    0.00308642  21 t-inv F
  0.277778  0.111111  0.000000    0.00308642  22 t-inv F
  0.333333  0.111111  0.000000    0.00308642  23 t-inv F
  0.388889  0.111111  0.000000    0.00308642  24 t-inv F
  0.444444  0.111111  0.000000    0.00308642  25 t-inv F
  0.166667  0.166667  0.000000    0.00308642  26 t-inv F
  0.222222  0.166667  0.000000    0.00308642  27 t-inv F
  0.277778  0.166667  0.000000    0.00308642  28 t-inv F
  0.333333  0.166667  0.000000    0.00308642  29 t-inv F
  0.388889  0.166667  0.000000    0.00308642  30 t-inv F
  0.222222  0.222222  0.000000    0.00308642  31 t-inv F
  0.277778  0.222222  0.000000    0.00308642  32 t-inv F
  0.333333  0.222222  0.000000    0.00308642  33 t-inv F
  0.388889  0.222222  0.000000    0.00308642  34 t-inv F
  0.277778  0.277778  0.000000    0.00308642  35 t-inv F
  0.333333  0.277778  0.000000    0.00308642  36 t-inv F
  0.333333  0.333333  0.000000    0.00308642  37 t-inv F
 -0.055556 -0.000000 -0.000000    0.00308642   2 t-inv F
  0.055556 -0.055556 -0.000000    0.00308642   2 t-inv F
 -0.055556  0.055556  0.000000    0.00308642   2 t-inv F
  0.000000 -0.055556  0.000000    0.00308642   2 t-inv F
 -0.000000  0.055556 -0.000000    0.00308642   2 t-inv F
 -0.111111 -0.000000 -0.000000    0.00308642   3 t-inv F
  0.111111 -0.111111 -0.000000    0.00308642   3 t-inv F
 -0.111111  0.111111  0.000000    0.00308642   3 t-inv F
  0.000000 -0.111111  0.000000    0.00308642   3 t-inv F
 -0.000000  0.111111 -0.000000    0.00308642   3 t-inv F
 -0.166667 -0.000000 -0.000000    0.00308642   4 t-inv F
  0.166667 -0.166667 -0.000000    0.00308642   4 t-inv F
 -0.166667  0.166667  0.000000    0.00308642   4 t-inv F
  0.000000 -0.166667  0.000000    0.00308642   4 t-inv F
 -0.000000  0.166667 -0.000000    0.00308642   4 t-inv F
 -0.222222 -0.000000 -0.000000    0.00308642   5 t-inv F
  0.222222 -0.222222 -0.000000    0.00308642   5 t-inv F
 -0.222222  0.222222  0.000000    0.00308642   5 t-inv F
  0.000000 -0.222222  0.000000    0.00308642   5 t-inv F
 -0.000000  0.222222 -0.000000    0.00308642   5 t-inv F
 -0.277778 -0.000000 -0.000000    0.00308642   6 t-inv F
  0.277778 -0.277778 -0.000000    0.00308642   6 t-inv F
 -0.277778  0.277778  0.000000    0.00308642   6 t-inv F
  0.000000 -0.277778  0.000000    0.00308642   6 t-inv F
 -0.000000  0.277778 -0.000000    0.00308642   6 t-inv F
 -0.333333 -0.000000 -0.000000    0.00308642   7 t-inv F
  0.333333 -0.333333 -0.000000    0.00308642   7 t-inv F
 -0.333333  0.333333  0.000000    0.00308642   7 t-inv F
  0.000000 -0.333333  0.000000    0.00308642   7 t-inv F
 -0.000000  0.333333 -0.000000    0.00308642   7 t-inv F
 -0.388889 -0.000000 -0.000000    0.00308642   8 t-inv F
  0.388889 -0.388889 -0.000000    0.00308642   8 t-inv F
 -0.388889  0.388889  0.000000    0.00308642   8 t-inv F
  0.000000 -0.388889  0.000000    0.00308642   8 t-inv F
 -0.000000  0.388889 -0.000000    0.00308642   8 t-inv F
 -0.444444 -0.000000 -0.000000    0.00308642   9 t-inv F
  0.444444 -0.444444 -0.000000    0.00308642   9 t-inv F
 -0.444444  0.444444  0.000000    0.00308642   9 t-inv F
  0.000000 -0.444444  0.000000    0.00308642   9 t-inv F
 -0.000000  0.444444 -0.000000    0.00308642   9 t-inv F
  0.500000 -0.500000 -0.000000    0.00308642  10 t-inv F
  0.000000 -0.500000  0.000000    0.00308642  10 t-inv F
 -0.055556 -0.055556 -0.000000    0.00308642  11 t-inv F
  0.055556 -0.111111 -0.000000    0.00308642  11 t-inv F
 -0.055556  0.111111  0.000000    0.00308642  11 t-inv F
 -0.111111  0.055556  0.000000    0.00308642  11 t-inv F
  0.111111 -0.055556 -0.000000    0.00308642  11 t-inv F
 -0.111111 -0.055556 -0.000000    0.00308642  12 t-inv F
  0.111111 -0.166667 -0.000000    0.00308642  12 t-inv F
 -0.111111  0.166667  0.000000    0.00308642  12 t-inv F
 -0.166667  0.111111  0.000000    0.00308642  12 t-inv F
  0.166667 -0.111111 -0.000000    0.00308642  12 t-inv F
  0.055556 -0.166667  0.000000    0.00308642  12 t-inv F
 -0.055556  0.166667 -0.000000    0.00308642  12 t-inv F
 -0.166667  0.055556 -0.000000    0.00308642  12 t-inv F
  0.166667 -0.055556  0.000000    0.00308642  12 t-inv F
  0.055556  0.111111 -0.000000    0.00308642  12 t-inv F
 -0.055556 -0.111111  0.000000    0.00308642  12 t-inv F
 -0.166667 -0.055556 -0.000000    0.00308642  13 t-inv F
  0.166667 -0.222222 -0.000000    0.00308642  13 t-inv F
 -0.166667  0.222222  0.000000    0.00308642  13 t-inv F
 -0.222222  0.166667  0.000000    0.00308642  13 t-inv F
  0.222222 -0.166667 -0.000000    0.00308642  13 t-inv F
  0.055556 -0.222222  0.000000    0.00308642  13 t-inv F
 -0.055556  0.222222 -0.000000    0.00308642  13 t-inv F
 -0.222222  0.055556 -0.000000    0.00308642  13 t-inv F
  0.222222 -0.055556  0.000000    0.00308642  13 t-inv F
  0.055556  0.166667 -0.000000    0.00308642  13 t-inv F
 -0.055556 -0.166667  0.000000    0.00308642  13 t-inv F
 -0.222222 -0.055556 -0.000000    0.00308642  14 t-inv F
  0.222222 -0.277778 -0.000000    0.00308642  14 t-inv F
 -0.222222  0.277778  0.000000    0.00308642  14 t-inv F
 -0.277778  0.222222  0.000000    0.00308642  14 t-inv F
  0.277778 -0.222222 -0.000000    0.00308642  14 t-inv F
  0.055556 -0.277778  0.000000    0.00308642  14 t-inv F
 -0.055556  0.277778 -0.000000    0.00308642  14 t-inv F
 -0.277778  0.055556 -0.000000    0.00308642  14 t-inv F
  0.277778 -0.055556  0.000000    0.00308642  14 t-inv F
  0.055556  0.222222 -0.000000    0.00308642  14 t-inv F
 -0.055556 -0.222222  0.000000    0.00308642  14 t-inv F
 -0.277778 -0.055556 -0.000000    0.00308642  15 t-inv F
  0.277778 -0.333333 -0.000000    0.00308642  15 t-inv F
 -0.277778  0.333333  0.000000    0.00308642  15 t-inv F
 -0.333333  0.277778  0.000000    0.00308642  15 t-inv F
  0.333333 -0.277778 -0.000000    0.00308642  15 t-inv F
  0.055556 -0.333333  0.000000    0.00308642  15 t-inv F
 -0.055556  0.333333 -0.000000    0.00308642  15 t-inv F
 -0.333333  0.055556 -0.000000    0.00308642  15 t-inv F
  0.333333 -0.055556  0.000000    0.00308642  15 t-inv F
  0.055556  0.277778 -0.000000    0.00308642  15 t-inv F
 -0.055556 -0.277778  0.000000    0.00308642  15 t-inv F
 -0.333333 -0.055556 -0.000000    0.00308642  16 t-inv F
  0.333333 -0.388889 -0.000000    0.00308642  16 t-inv F
 -0.333333  0.388889  0.000000    0.00308642  16 t-inv F
 -0.388889  0.333333  0.000000    0.00308642  16 t-inv F
  0.388889 -0.333333 -0.000000    0.00308642  16 t-inv F
  0.055556 -0.388889  0.000000    0.00308642  16 t-inv F
 -0.055556  0.388889 -0.000000    0.00308642  16 t-inv F
 -0.388889  0.055556 -0.000000    0.00308642  16 t-inv F
  0.388889 -0.055556  0.000000    0.00308642  16 t-inv F
  0.055556  0.333333 -0.000000    0.00308642  16 t-inv F
 -0.055556 -0.333333  0.000000    0.00308642  16 t-inv F
 -0.388889 -0.055556 -0.000000    0.00308642  17 t-inv F
  0.388889 -0.444444 -0.000000    0.00308642  17 t-inv F
 -0.388889  0.444444  0.000000    0.00308642  17 t-inv F
 -0.444444  0.388889  0.000000    0.00308642  17 t-inv F
  0.444444 -0.388889 -0.000000    0.00308642  17 t-inv F
  0.055556 -0.444444  0.000000    0.00308642  17 t-inv F
 -0.055556  0.444444 -0.000000    0.00308642  17 t-inv F
 -0.444444  0.055556 -0.000000    0.00308642  17 t-inv F
  0.444444 -0.055556  0.000000    0.00308642  17 t-inv F
  0.055556  0.388889 -0.000000    0.00308642  17 t-inv F
 -0.055556 -0.388889  0.000000    0.00308642  17 t-inv F
 -0.444444 -0.055556 -0.000000    0.00308642  18 t-inv F
  0.444444 -0.500000 -0.000000    0.00308642  18 t-inv F
 -0.444444  0.500000  0.000000    0.00308642  18 t-inv F
 -0.500000  0.444444  0.000000    0.00308642  18 t-inv F
  0.500000 -0.444444 -0.000000    0.00308642  18 t-inv F
  0.055556 -0.500000  0.000000    0.00308642  18 t-inv F
 -0.055556  0.500000 -0.000000    0.00308642  18 t-inv F
 -0.500000  0.055556 -0.000000    0.00308642  18 t-inv F
  0.500000 -0.055556  0.000000    0.00308642  18 t-inv F
  0.055556  0.444444 -0.000000    0.00308642  18 t-inv F
 -0.055556 -0.444444  0.000000    0.00308642  18 t-inv F
 -0.111111 -0.111111 -0.000000    0.00308642  19 t-inv F
  0.111111 -0.222222 -0.000000    0.00308642  19 t-inv F
 -0.111111  0.222222  0.000000    0.00308642  19 t-inv F
 -0.222222  0.111111  0.000000    0.00308642  19 t-inv F
  0.222222 -0.111111 -0.000000    0.00308642  19 t-inv F
 -0.166667 -0.111111 -0.000000    0.00308642  20 t-inv F
  0.166667 -0.277778 -0.000000    0.00308642  20 t-inv F
 -0.166667  0.277778  0.000000    0.00308642  20 t-inv F
 -0.277778  0.166667  0.000000    0.00308642  20 t-inv F
  0.277778 -0.166667 -0.000000    0.00308642  20 t-inv F
  0.111111 -0.277778  0.000000    0.00308642  20 t-inv F
 -0.111111  0.277778 -0.000000    0.00308642  20 t-inv F
 -0.277778  0.111111 -0.000000    0.00308642  20 t-inv F
  0.277778 -0.111111  0.000000    0.00308642  20 t-inv F
  0.111111  0.166667 -0.000000    0.00308642  20 t-inv F
 -0.111111 -0.166667  0.000000    0.00308642  20 t-inv F
 -0.222222 -0.111111 -0.000000    0.00308642  21 t-inv F
  0.222222 -0.333333 -0.000000    0.00308642  21 t-inv F
 -0.222222  0.333333  0.000000    0.00308642  21 t-inv F
 -0.333333  0.222222  0.000000    0.00308642  21 t-inv F
  0.333333 -0.222222 -0.000000    0.00308642  21 t-inv F
  0.111111 -0.333333  0.000000    0.00308642  21 t-inv F
 -0.111111  0.333333 -0.000000    0.00308642  21 t-inv F
 -0.333333  0.111111 -0.000000    0.00308642  21 t-inv F
  0.333333 -0.111111  0.000000    0.00308642  21 t-inv F
  0.111111  0.222222 -0.000000    0.00308642  21 t-inv F
 -0.111111 -0.222222  0.000000    0.00308642  21 t-inv F
 -0.277778 -0.111111 -0.000000    0.00308642  22 t-inv F
  0.277778 -0.388889 -0.000000    0.00308642  22 t-inv F
 -0.277778  0.388889  0.000000    0.00308642  22 t-inv F
 -0.388889  0.277778  0.000000    0.00308642  22 t-inv F
  0.388889 -0.277778 -0.000000    0.00308642  22 t-inv F
  0.111111 -0.388889  0.000000    0.00308642  22 t-inv F
 -0.111111  0.388889 -0.000000    0.00308642  22 t-inv F
 -0.388889  0.111111 -0.000000    0.00308642  22 t-inv F
  0.388889 -0.111111  0.000000    0.00308642  22 t-inv F
  0.111111  0.277778 -0.000000    0.00308642  22 t-inv F
 -0.111111 -0.277778  0.000000    0.00308642  22 t-inv F
 -0.333333 -0.111111 -0.000000    0.00308642  23 t-inv F
  0.333333 -0.444444 -0.000000    0.00308642  23 t-inv F
 -0.333333  0.444444  0.000000    0.00308642  23 t-inv F
 -0.444444  0.333333  0.000000    0.00308642  23 t-inv F
  0.444444 -0.333333 -0.000000    0.00308642  23 t-inv F
  0.111111 -0.444444  0.000000    0.00308642  23 t-inv F
 -0.111111  0.444444 -0.000000    0.00308642  23 t-inv F
 -0.444444  0.111111 -0.000000    0.00308642  23 t-inv F
  0.444444 -0.111111  0.000000    0.00308642  23 t-inv F
  0.111111  0.333333 -0.000000    0.00308642  23 t-inv F
 -0.111111 -0.333333  0.000000    0.00308642  23 t-inv F
 -0.388889 -0.111111 -0.000000    0.00308642  24 t-inv F
  0.388889 -0.500000 -0.000000    0.00308642  24 t-inv F
 -0.388889  0.500000  0.000000    0.00308642  24 t-inv F
 -0.500000  0.388889  0.000000    0.00308642  24 t-inv F
  0.500000 -0.388889 -0.000000    0.00308642  24 t-inv F
  0.111111 -0.500000  0.000000    0.00308642  24 t-inv F
 -0.111111  0.500000 -0.000000    0.00308642  24 t-inv F
 -0.500000  0.111111 -0.000000    0.00308642  24 t-inv F
  0.500000 -0.111111  0.000000    0.00308642  24 t-inv F
  0.111111  0.388889 -0.000000    0.00308642  24 t-inv F
 -0.111111 -0.388889  0.000000    0.00308642  24 t-inv F
 -0.444444 -0.111111 -0.000000    0.00308642  25 t-inv F
  0.444444 -0.555556 -0.000000    0.00308642  25 t-inv F
 -0.444444  0.555556  0.000000    0.00308642  25 t-inv F
  0.111111 -0.555556  0.000000    0.00308642  25 t-inv F
 -0.111111  0.555556 -0.000000    0.00308642  25 t-inv F
 -0.166667 -0.166667 -0.000000    0.00308642  26 t-inv F
  0.166667 -0.333333 -0.000000    0.00308642  26 t-inv F
 -0.166667  0.333333  0.000000    0.00308642  26 t-inv F
 -0.333333  0.166667  0.000000    0.00308642  26 t-inv F
  0.333333 -0.166667 -0.000000    0.00308642  26 t-inv F
 -0.222222 -0.166667 -0.000000    0.00308642  27 t-inv F
  0.222222 -0.388889 -0.000000    0.00308642  27 t-inv F
 -0.222222  0.388889  0.000000    0.00308642  27 t-inv F
 -0.388889  0.222222  0.000000    0.00308642  27 t-inv F
  0.388889 -0.222222 -0.000000    0.00308642  27 t-inv F
  0.166667 -0.388889  0.000000    0.00308642  27 t-inv F
 -0.166667  0.388889 -0.000000    0.00308642  27 t-inv F
 -0.388889  0.166667 -0.000000    0.00308642  27 t-inv F
  0.388889 -0.166667  0.000000    0.00308642  27 t-inv F
  0.166667  0.222222 -0.000000    0.00308642  27 t-inv F
 -0.166667 -0.222222  0.000000    0.00308642  27 t-inv F
 -0.277778 -0.166667 -0.000000    0.00308642  28 t-inv F
  0.277778 -0.444444 -0.000000    0.00308642  28 t-inv F
 -0.277778  0.444444  0.000000    0.00308642  28 t-inv F
 -0.444444  0.277778  0.000000    0.00308642  28 t-inv F
  0.444444 -0.277778 -0.000000    0.00308642  28 t-inv F
  0.166667 -0.444444  0.000000    0.00308642  28 t-inv F
 -0.166667  0.444444 -0.000000    0.00308642  28 t-inv F
 -0.444444  0.166667 -0.000000    0.00308642  28 t-inv F
  0.444444 -0.166667  0.000000    0.00308642  28 t-inv F
  0.166667  0.277778 -0.000000    0.00308642  28 t-inv F
 -0.166667 -0.277778  0.000000    0.00308642  28 t-inv F
 -0.333333 -0.166667 -0.000000    0.00308642  29 t-inv F
  0.333333 -0.500000 -0.000000    0.00308642  29 t-inv F
 -0.333333  0.500000  0.000000    0.00308642  29 t-inv F
 -0.500000  0.333333  0.000000    0.00308642  29 t-inv F
  0.500000 -0.333333 -0.000000    0.00308642  29 t-inv F
  0.166667 -0.500000  0.000000    0.00308642  29 t-inv F
 -0.166667  0.500000 -0.000000    0.00308642  29 t-inv F
 -0.500000  0.166667 -0.000000    0.00308642  29 t-inv F
  0.500000 -0.166667  0.000000    0.00308642  29 t-inv F
  0.166667  0.333333 -0.000000    0.00308642  29 t-inv F
 -0.166667 -0.333333  0.000000    0.00308642  29 t-inv F
 -0.388889 -0.166667 -0.000000    0.00308642  30 t-inv F
  0.388889 -0.555556 -0.000000    0.00308642  30 t-inv F
 -0.388889  0.555556  0.000000    0.00308642  30 t-inv F
 -0.555556  0.388889  0.000000    0.00308642  30 t-inv F
  0.555556 -0.388889 -0.000000    0.00308642  30 t-inv F
  0.166667 -0.555556  0.000000    0.00308642  30 t-inv F
 -0.166667  0.555556 -0.000000    0.00308642  30 t-inv F
 -0.555556  0.166667 -0.000000    0.00308642  30 t-inv F
  0.555556 -0.166667  0.000000    0.00308642  30 t-inv F
  0.166667  0.388889 -0.000000    0.00308642  30 t-inv F
 -0.166667 -0.388889  0.000000    0.00308642  30 t-inv F
 -0.222222 -0.222222 -0.000000    0.00308642  31 t-inv F
  0.222222 -0.444444 -0.000000    0.00308642  31 t-inv F
 -0.222222  0.444444  0.000000    0.00308642  31 t-inv F
 -0.444444  0.222222  0.000000    0.00308642  31 t-inv F
  0.444444 -0.222222 -0.000000    0.00308642  31 t-inv F
 -0.277778 -0.222222 -0.000000    0.00308642  32 t-inv F
  0.277778 -0.500000 -0.000000    0.00308642  32 t-inv F
 -0.277778  0.500000  0.000000    0.00308642  32 t-inv F
 -0.500000  0.277778  0.000000    0.00308642  32 t-inv F
  0.500000 -0.277778 -0.000000    0.00308642  32 t-inv F
  0.222222 -0.500000  0.000000    0.00308642  32 t-inv F
 -0.222222  0.500000 -0.000000    0.00308642  32 t-inv F
 -0.500000  0.222222 -0.000000    0.00308642  32 t-inv F
  0.500000 -0.222222  0.000000    0.00308642  32 t-inv F
  0.222222  0.277778 -0.000000    0.00308642  32 t-inv F
 -0.222222 -0.277778  0.000000    0.00308642  32 t-inv F
 -0.333333 -0.222222 -0.000000    0.00308642  33 t-inv F
  0.333333 -0.555556 -0.000000    0.00308642  33 t-inv F
 -0.333333  0.555556  0.000000    0.00308642  33 t-inv F
 -0.555556  0.333333  0.000000    0.00308642  33 t-inv F
  0.555556 -0.333333 -0.000000    0.00308642  33 t-inv F
  0.222222 -0.555556  0.000000    0.00308642  33 t-inv F
 -0.222222  0.555556 -0.000000    0.00308642  33 t-inv F
 -0.555556  0.222222 -0.000000    0.00308642  33 t-inv F
  0.555556 -0.222222  0.000000    0.00308642  33 t-inv F
  0.222222  0.333333 -0.000000    0.00308642  33 t-inv F
 -0.222222 -0.333333  0.000000    0.00308642  33 t-inv F
 -0.388889 -0.222222 -0.000000    0.00308642  34 t-inv F
  0.388889 -0.611111 -0.000000    0.00308642  34 t-inv F
 -0.388889  0.611111  0.000000    0.00308642  34 t-inv F
  0.222222 -0.611111  0.000000    0.00308642  34 t-inv F
 -0.222222  0.611111 -0.000000    0.00308642  34 t-inv F
 -0.277778 -0.277778 -0.000000    0.00308642  35 t-inv F
  0.277778 -0.555556 -0.000000    0.00308642  35 t-inv F
 -0.277778  0.555556  0.000000    0.00308642  35 t-inv F
 -0.555556  0.277778  0.000000    0.00308642  35 t-inv F
  0.555556 -0.277778 -0.000000    0.00308642  35 t-inv F
 -0.333333 -0.277778 -0.000000    0.00308642  36 t-inv F
  0.333333 -0.611111 -0.000000    0.00308642  36 t-inv F
 -0.333333  0.611111  0.000000    0.00308642  36 t-inv F
 -0.611111  0.333333  0.000000    0.00308642  36 t-inv F
  0.611111 -0.333333 -0.000000    0.00308642  36 t-inv F
  0.277778 -0.611111  0.000000    0.00308642  36 t-inv F
 -0.277778  0.611111 -0.000000    0.00308642  36 t-inv F
 -0.611111  0.277778 -0.000000    0.00308642  36 t-inv F
  0.611111 -0.277778  0.000000    0.00308642  36 t-inv F
  0.277778  0.333333 -0.000000    0.00308642  36 t-inv F
 -0.277778 -0.333333  0.000000    0.00308642  36 t-inv F
 -0.333333 -0.333333 -0.000000    0.00308642  37 t-inv F


--------------------------------------------------------------------------------------------------------




 Dimension of arrays:
   k-points           NKPTS =     37   k-points in BZ     NKDIM =     37   number of bands    NBANDS=     84
   number of dos      NEDOS =    301   number of ions     NIONS =     12
   non local maximal  LDIM  =      8   non local SUM 2l+1 LMDIM =     26
   total plane-waves  NPLWV = 117600
   max r-space proj   IRMAX =      1   max aug-charges    IRDMAX=  10950
   dimension x,y,z NGX =    20 NGY =   20 NGZ =  294
   dimension x,y,z NGXF=    40 NGYF=   40 NGZF=  588
   support grid    NGXF=    40 NGYF=   40 NGZF=  588
   ions per type =               4   8
 NGX,Y,Z   is equivalent  to a cutoff of  10.02, 10.02,  9.78 a.u.
 NGXF,Y,Z  is equivalent  to a cutoff of  20.04, 20.04, 19.55 a.u.


 I would recommend the setting:
   dimension x,y,z NGX =    19 NGY =   19 NGZ =  290
 SYSTEM =  unknown system                          
 POSCAR =   W Se                                   

 Startparameter for this run:
   NWRITE =      2    write-flag & timer
   PREC   = accura    normal or accurate (medium, high low for compatibility)
   ISTART =      0    job   : 0-new  1-cont  2-samecut
   ICHARG =      2    charge: 1-file 2-atom 10-const
   ISPIN  =      1    spin polarized calculation?
   LNONCOLLINEAR =      F non collinear calculations
   LSORBIT =      F    spin-orbit coupling
   INIWAV =      1    electr: 0-lowe 1-rand  2-diag
   LASPH  =      F    aspherical Exc in radial PAW
   METAGGA=      F    non-selfconsistent MetaGGA calc.

 Electronic Relaxation 1
   ENCUT  =  317.1 eV  23.31 Ry    4.83 a.u.   4.82  4.82 72.60*2*pi/ulx,y,z
   ENINI  =  317.1     initial cutoff
   ENAUG  =  807.8 eV  augmentation charge cutoff
   NELM   =     60;   NELMIN=  5; NELMDL= -5     # of ELM steps 
   EDIFF  = 0.1E-07   stopping-criterion for ELM
   LREAL  =      F    real-space projection
   NLSPLINE    = F    spline interpolate recip. space projectors
   LCOMPAT=      F    compatible to vasp.4.4
   GGA_COMPAT  = T    GGA compatible to vasp.4.4-vasp.4.6
   LMAXPAW     = -100 max onsite density
   LMAXMIX     =    2 max onsite mixed and CHGCAR
   VOSKOWN=      0    Vosko Wilk Nusair interpolation
   ROPT   =    0.00000   0.00000
 Ionic relaxation
   EDIFFG = 0.1E-06   stopping-criterion for IOM
   NSW    =      0    number of steps for IOM
   NBLOCK =      1;   KBLOCK =      1    inner block; outer block 
   IBRION =     -1    ionic relax: 0-MD 1-quasi-New 2-CG
   NFREE  =      0    steps in history (QN), initial steepest desc. (CG)
   ISIF   =      2    stress and relaxation
   IWAVPR =     10    prediction:  0-non 1-charg 2-wave 3-comb
   ISYM   =      2    0-nonsym 1-usesym 2-fastsym
   LCORR  =      T    Harris-Foulkes like correction to forces

   POTIM  = 0.5000    time-step for ionic-motion
   TEIN   =    0.0    initial temperature
   TEBEG  =    0.0;   TEEND  =   0.0 temperature during run
   SMASS  =  -3.00    Nose mass-parameter (am)
   estimated Nose-frequenzy (Omega)   =  0.10E-29 period in steps =****** mass=  -0.252E-27a.u.
   SCALEE = 1.0000    scale energy and forces
   NPACO  =    256;   APACO  = 16.0  distance and # of slots for P.C.
   PSTRESS=    0.0 pullay stress

  Mass of Ions in am
   POMASS = 183.85 78.96
  Ionic Valenz
   ZVAL   =  14.00  6.00
  Atomic Wigner-Seitz radii
   RWIGS  =  -1.00 -1.00
  virtual crystal weights 
   VCA    =   1.00  1.00
   NELECT =     104.0000    total number of electrons
   NUPDOWN=      -1.0000    fix difference up-down

 DOS related values:
   EMIN   =  10.00;   EMAX   =-10.00  energy-range for DOS
   EFERMI =   0.00
   ISMEAR =    -5;   SIGMA  =   0.01  broadening in eV -4-tet -1-fermi 0-gaus

 Electronic relaxation 2 (details)
   IALGO  =     38    algorithm
   LDIAG  =      T    sub-space diagonalisation (order eigenvalues)
   LSUBROT=      F    optimize rotation matrix (better conditioning)
   TURBO    =      0    0=normal 1=particle mesh
   IRESTART =      0    0=no restart 2=restart with 2 vectors
   NREBOOT  =      0    no. of reboots
   NMIN     =      0    reboot dimension
   EREF     =   0.00    reference energy to select bands
   IMIX   =      4    mixing-type and parameters
     AMIX     =   0.40;   BMIX     =  1.00
     AMIX_MAG =   1.60;   BMIX_MAG =  1.00
     AMIN     =   0.10
     WC   =   100.;   INIMIX=   1;  MIXPRE=   1;  MAXMIX= -45

 Intra band minimization:
   WEIMIN = 0.0000     energy-eigenvalue tresh-hold
   EBREAK =  0.30E-10  absolut break condition
   DEPER  =   0.30     relativ break condition  

   TIME   =   0.40     timestep for ELM

  volume/ion in A,a.u.               =      39.75       268.25
  Fermi-wavevector in a.u.,A,eV,Ry     =   0.985327  1.861998 13.209475  0.970869
  Thomas-Fermi vector in A             =   2.116626
 
 Write flags
   LWAVE  =      T    write WAVECAR
   LCHARG =      T    write CHGCAR
   LVTOT  =      F    write LOCPOT, total local potential
   LVHAR  =      F    write LOCPOT, Hartree potential only
   LELF   =      F    write electronic localiz. function (ELF)
   LORBIT =      0    0 simple, 1 ext, 2 COOP (PROOUT)


 Dipole corrections
   LMONO  =      F    monopole corrections only (constant potential shift)
   LDIPOL =      F    correct potential (dipole corrections)
   IDIPOL =      0    1-x, 2-y, 3-z, 4-all directions 
   EPSILON=  1.0000000 bulk dielectric constant

 Exchange correlation treatment:
   GGA     =    PE    GGA type
   LEXCH   =     8    internal setting for exchange type
   VOSKOWN=      0    Vosko Wilk Nusair interpolation
   LHFCALC =     F    Hartree Fock is set to
   LHFONE  =     F    Hartree Fock one center treatment
   AEXX    =    0.0000 exact exchange contribution

 Linear response parameters
   LEPSILON=     T    determine dielectric tensor
   LRPA    =     F    only Hartree local field effects (RPA)
   LNABLA  =     F    use nabla operator in PAW spheres
   LVEL    =     F    velocity operator in full k-point grid
   LINTERFAST=   F  fast interpolation
   KINTER  =     0    interpolate to denser k-point grid
   CSHIFT  =0.1000    complex shift for real part using Kramers Kronig
   OMEGAMAX=  -1.0    maximum frequency
   DEG_THRESHOLD= 0.2000000E-02 threshold for treating states as degnerate
   RTIME   =    0.100 relaxation time in fs

 Orbital magnetization related:
   ORBITALMAG=     F  switch on orbital magnetization
   LCHIMAG   =     F  perturbation theory with respect to B field
   DQ        =  0.001000  dq finite difference perturbation B field



--------------------------------------------------------------------------------------------------------


 Static calculation
 charge density and potential will be updated during run
 non-spin polarized calculation
 Variant of blocked Davidson
 Davidson routine will perform the subspace rotation
 perform sub-space diagonalisation
    after iterative eigenvector-optimisation
 modified Broyden-mixing scheme, WC =      100.0
 initial mixing is a Kerker type mixing with AMIX =  0.4000 and BMIX =      1.0000
 Hartree-type preconditioning will be used
 using additional bands           32
 reciprocal scheme for non local part
 use partial core corrections
 calculate Harris-corrections to forces 
   (improved forces if not selfconsistent)
 use gradient corrections 
 use of overlap-Matrix (Vanderbilt PP)
 Fermi weights with tetrahedron method with Bloechl corrections


--------------------------------------------------------------------------------------------------------


  energy-cutoff  :      317.13
  volume of cell :      477.00
      direct lattice vectors                 reciprocal lattice vectors
     3.319006624  0.000000000  0.000000000     0.301294970  0.173952732  0.000000000
    -1.659503312  2.874344052  0.000000000     0.000000000  0.347905464  0.000000000
     0.000000000  0.000000000 50.000000000     0.000000000  0.000000000  0.020000000

  length of vectors
     3.319006624  3.319006624 50.000000000     0.347905464  0.347905464  0.020000000


 
 k-points in units of 2pi/SCALE and weight: KPOINTS created by Atomic Simulation Env
   0.00000000  0.00000000  0.00000000       0.003
   0.01673861  0.00966404  0.00000000       0.019
   0.03347722  0.01932808  0.00000000       0.019
   0.05021583  0.02899212  0.00000000       0.019
   0.06695444  0.03865616  0.00000000       0.019
   0.08369305  0.04832020  0.00000000       0.019
   0.10043166  0.05798424  0.00000000       0.019
   0.11717027  0.06764828  0.00000000       0.019
   0.13390888  0.07731233  0.00000000       0.019
   0.15064748  0.08697637  0.00000000       0.009
   0.01673861  0.02899212  0.00000000       0.019
   0.03347722  0.03865616  0.00000000       0.037
   0.05021583  0.04832020  0.00000000       0.037
   0.06695444  0.05798424  0.00000000       0.037
   0.08369305  0.06764828  0.00000000       0.037
   0.10043166  0.07731233  0.00000000       0.037
   0.11717027  0.08697637  0.00000000       0.037
   0.13390888  0.09664041  0.00000000       0.037
   0.03347722  0.05798424  0.00000000       0.019
   0.05021583  0.06764828  0.00000000       0.037
   0.06695444  0.07731233  0.00000000       0.037
   0.08369305  0.08697637  0.00000000       0.037
   0.10043166  0.09664041  0.00000000       0.037
   0.11717027  0.10630445  0.00000000       0.037
   0.13390888  0.11596849  0.00000000       0.019
   0.05021583  0.08697637  0.00000000       0.019
   0.06695444  0.09664041  0.00000000       0.037
   0.08369305  0.10630445  0.00000000       0.037
   0.10043166  0.11596849  0.00000000       0.037
   0.11717027  0.12563253  0.00000000       0.037
   0.06695444  0.11596849  0.00000000       0.019
   0.08369305  0.12563253  0.00000000       0.037
   0.10043166  0.13529657  0.00000000       0.037
   0.11717027  0.14496061  0.00000000       0.019
   0.08369305  0.14496061  0.00000000       0.019
   0.10043166  0.15462465  0.00000000       0.037
   0.10043166  0.17395273  0.00000000       0.006
 
 k-points in reciprocal lattice and weights: KPOINTS created by Atomic Simulation Env
   0.00000000  0.00000000  0.00000000       0.003
   0.05555556  0.00000000  0.00000000       0.019
   0.11111111  0.00000000  0.00000000       0.019
   0.16666667  0.00000000  0.00000000       0.019
   0.22222222  0.00000000  0.00000000       0.019
   0.27777778  0.00000000  0.00000000       0.019
   0.33333333  0.00000000  0.00000000       0.019
   0.38888889  0.00000000  0.00000000       0.019
   0.44444444  0.00000000  0.00000000       0.019
   0.50000000  0.00000000  0.00000000       0.009
   0.05555556  0.05555556  0.00000000       0.019
   0.11111111  0.05555556  0.00000000       0.037
   0.16666667  0.05555556  0.00000000       0.037
   0.22222222  0.05555556  0.00000000       0.037
   0.27777778  0.05555556  0.00000000       0.037
   0.33333333  0.05555556  0.00000000       0.037
   0.38888889  0.05555556  0.00000000       0.037
   0.44444444  0.05555556  0.00000000       0.037
   0.11111111  0.11111111  0.00000000       0.019
   0.16666667  0.11111111  0.00000000       0.037
   0.22222222  0.11111111  0.00000000       0.037
   0.27777778  0.11111111  0.00000000       0.037
   0.33333333  0.11111111  0.00000000       0.037
   0.38888889  0.11111111  0.00000000       0.037
   0.44444444  0.11111111  0.00000000       0.019
   0.16666667  0.16666667  0.00000000       0.019
   0.22222222  0.16666667  0.00000000       0.037
   0.27777778  0.16666667  0.00000000       0.037
   0.33333333  0.16666667  0.00000000       0.037
   0.38888889  0.16666667  0.00000000       0.037
   0.22222222  0.22222222  0.00000000       0.019
   0.27777778  0.22222222  0.00000000       0.037
   0.33333333  0.22222222  0.00000000       0.037
   0.38888889  0.22222222  0.00000000       0.019
   0.27777778  0.27777778  0.00000000       0.019
   0.33333333  0.27777778  0.00000000       0.037
   0.33333333  0.33333333  0.00000000       0.006
 
 position of ions in fractional coordinates (direct lattice) 
   0.16666667  0.33333333  0.30530000
   0.83333333  0.66666667  0.43510000
   0.16666667  0.33333333  0.56490000
   0.83333333  0.66666667  0.69470000
   0.83333333  0.66666667  0.33888553
   0.83333333  0.66666667  0.27171447
   0.16666667  0.33333333  0.46868553
   0.16666667  0.33333333  0.40151447
   0.83333333  0.66666667  0.59848553
   0.83333333  0.66666667  0.53131447
   0.16666667  0.33333333  0.72828553
   0.16666667  0.33333333  0.66111447
 
 position of ions in cartesian coordinates  (Angst):
  -0.00000000  0.95811468 15.26500000
   1.65950331  1.91622937 21.75500000
  -0.00000000  0.95811468 28.24500000
   1.65950331  1.91622937 34.73500000
   1.65950331  1.91622937 16.94427640
   1.65950331  1.91622937 13.58572360
  -0.00000000  0.95811468 23.43427640
  -0.00000000  0.95811468 20.07572360
   1.65950331  1.91622937 29.92427640
   1.65950331  1.91622937 26.56572360
  -0.00000000  0.95811468 36.41427640
  -0.00000000  0.95811468 33.05572360
 


--------------------------------------------------------------------------------------------------------


 k-point  1 :   0.0000 0.0000 0.0000  plane waves:    6121
 k-point  2 :   0.0556 0.0000 0.0000  plane waves:    6111
 k-point  3 :   0.1111 0.0000 0.0000  plane waves:    6099
 k-point  4 :   0.1667 0.0000 0.0000  plane waves:    6067
 k-point  5 :   0.2222 0.0000 0.0000  plane waves:    6078
 k-point  6 :   0.2778 0.0000 0.0000  plane waves:    6110
 k-point  7 :   0.3333 0.0000 0.0000  plane waves:    6112
 k-point  8 :   0.3889 0.0000 0.0000  plane waves:    6106
 k-point  9 :   0.4444 0.0000 0.0000  plane waves:    6154
 k-point 10 :   0.5000 0.0000 0.0000  plane waves:    6148
 k-point 11 :   0.0556 0.0556 0.0000  plane waves:    6097
 k-point 12 :   0.1111 0.0556 0.0000  plane waves:    6081
 k-point 13 :   0.1667 0.0556 0.0000  plane waves:    6065
 k-point 14 :   0.2222 0.0556 0.0000  plane waves:    6087
 k-point 15 :   0.2778 0.0556 0.0000  plane waves:    6111
 k-point 16 :   0.3333 0.0556 0.0000  plane waves:    6129
 k-point 17 :   0.3889 0.0556 0.0000  plane waves:    6117
 k-point 18 :   0.4444 0.0556 0.0000  plane waves:    6146
 k-point 19 :   0.1111 0.1111 0.0000  plane waves:    6073
 k-point 20 :   0.1667 0.1111 0.0000  plane waves:    6075
 k-point 21 :   0.2222 0.1111 0.0000  plane waves:    6102
 k-point 22 :   0.2778 0.1111 0.0000  plane waves:    6123
 k-point 23 :   0.3333 0.1111 0.0000  plane waves:    6123
 k-point 24 :   0.3889 0.1111 0.0000  plane waves:    6135
 k-point 25 :   0.4444 0.1111 0.0000  plane waves:    6144
 k-point 26 :   0.1667 0.1667 0.0000  plane waves:    6095
 k-point 27 :   0.2222 0.1667 0.0000  plane waves:    6106
 k-point 28 :   0.2778 0.1667 0.0000  plane waves:    6111
 k-point 29 :   0.3333 0.1667 0.0000  plane waves:    6126
 k-point 30 :   0.3889 0.1667 0.0000  plane waves:    6142
 k-point 31 :   0.2222 0.2222 0.0000  plane waves:    6129
 k-point 32 :   0.2778 0.2222 0.0000  plane waves:    6122
 k-point 33 :   0.3333 0.2222 0.0000  plane waves:    6162
 k-point 34 :   0.3889 0.2222 0.0000  plane waves:    6183
 k-point 35 :   0.2778 0.2778 0.0000  plane waves:    6135
 k-point 36 :   0.3333 0.2778 0.0000  plane waves:    6164
 k-point 37 :   0.3333 0.3333 0.0000  plane waves:    6165

 maximum and minimum number of plane-waves per node :      6183     6065

 maximum number of plane-waves:      6183
 maximum index in each direction: 
   IXMAX=    4   IYMAX=    4   IZMAX=   72
   IXMIN=   -5   IYMIN=   -5   IZMIN=  -72

 NGX is ok and might be reduce to  20
 NGY is ok and might be reduce to  20
 NGZ is ok and might be reduce to 290

 serial   3D FFT for wavefunctions
 parallel 3D FFT for charge:
    minimum data exchange during FFTs selected (reduces bandwidth)


 total amount of memory used by VASP on root node   147503. kBytes
========================================================================

   base      :      30000. kBytes
   nonl-proj :      96433. kBytes
   fftplans  :       1943. kBytes
   grid      :       7351. kBytes
   one-center:        389. kBytes
   wavefun   :      11387. kBytes
 
     INWAV:  cpu time    0.0000: real time    0.0003
 Broyden mixing: mesh for mixing (old mesh)
   NGX =  9   NGY =  9   NGZ =145
  (NGX  = 40   NGY  = 40   NGZ  =588)
  gives a total of  11745 points

 initial charge density was supplied:
 charge density of overlapping atoms calculated
 number of electron     104.0000000 magnetization 
 keeping initial charge density in first step


--------------------------------------------------------------------------------------------------------


 Maximum index for augmentation-charges          877 (set IRDMAX)


--------------------------------------------------------------------------------------------------------


 First call to EWALD:  gamma=   0.227
 Maximum number of real-space cells 7x 7x 1
 Maximum number of reciprocal cells 1x 1x15

 FEWALD executed in parallel
    FEWALD:  cpu time    0.0020: real time    0.0012


----------------------------------------- Iteration    1(   1)  ---------------------------------------


    POTLOK:  cpu time    0.0300: real time    0.0305
    SETDIJ:  cpu time    0.0060: real time    0.0060
     EDDAV:  cpu time    6.0811: real time    6.0915
 BZINTS: Fermi energy: 10.494899;104.000000 electrons
         Band energy:***********;  BLOECHL correction: -0.093335
       DOS:  cpu time    0.0260: real time    0.0267
    --------------------------------------------
      LOOP:  cpu time    6.1451: real time    6.1569

 eigenvalue-minimisations  :  7784
 total energy-change (2. order) : 0.6549036E+03  (-0.4331815E+04)
 number of electron     104.0000000 magnetization 
 augmentation part      104.0000000 magnetization 

 Free energy of the ion-electron system (eV)
  ---------------------------------------------------
  alpha Z        PSCENC =       232.01864142
  Ewald energy   TEWEN  =     96717.45839256
  -Hartree energ DENC   =   -105239.55105392
  -exchange      EXHF   =         0.00000000
  -V(xc)+E(xc)   XCENC  =       -77.85749173
  PAW double counting   =      7914.62896321    -7402.28165193
  entropy T*S    EENTRO =         0.00000000
  eigenvalues    EBANDS =     -1001.16069514
  atomic energy  EATOM  =      9511.64854214
  Solvation  Ediel_sol  =         0.00000000
  ---------------------------------------------------
  free energy    TOTEN  =       654.90364661 eV

  energy without entropy =      654.90364661  energy(sigma->0) =      654.90364661


--------------------------------------------------------------------------------------------------------




----------------------------------------- Iteration    1(   2)  ---------------------------------------


     EDDAV:  cpu time    7.3319: real time    7.3446
 BZINTS: Fermi energy:  2.847232;104.000000 electrons
         Band energy:***********;  BLOECHL correction:  0.000000
       DOS:  cpu time    0.0060: real time    0.0057
    --------------------------------------------
      LOOP:  cpu time    7.3399: real time    7.3530

 eigenvalue-minimisations  :  9604
 total energy-change (2. order) :-0.7174616E+03  (-0.7009648E+03)
 number of electron     104.0000000 magnetization 
 augmentation part      104.0000000 magnetization 

 Free energy of the ion-electron system (eV)
  ---------------------------------------------------
  alpha Z        PSCENC =       232.01864142
  Ewald energy   TEWEN  =     96717.45839256
  -Hartree energ DENC   =   -105239.55105392
  -exchange      EXHF   =         0.00000000
  -V(xc)+E(xc)   XCENC  =       -77.85749173
  PAW double counting   =      7914.62896321    -7402.28165193
  entropy T*S    EENTRO =         0.00000000
  eigenvalues    EBANDS =     -1718.62232422
  atomic energy  EATOM  =      9511.64854214
  Solvation  Ediel_sol  =         0.00000000
  ---------------------------------------------------
  free energy    TOTEN  =       -62.55798247 eV

  energy without entropy =      -62.55798247  energy(sigma->0) =      -62.55798247


--------------------------------------------------------------------------------------------------------




----------------------------------------- Iteration    1(   3)  ---------------------------------------


     EDDAV:  cpu time    6.7430: real time    6.7477
 BZINTS: Fermi energy:  1.694937;104.000000 electrons
         Band energy:***********;  BLOECHL correction:  0.000000
       DOS:  cpu time    0.0040: real time    0.0044
    --------------------------------------------
      LOOP:  cpu time    6.7490: real time    6.7551

 eigenvalue-minimisations  :  8680
 total energy-change (2. order) :-0.4048254E+02  (-0.4010252E+02)
 number of electron     104.0000000 magnetization 
 augmentation part      104.0000000 magnetization 

 Free energy of the ion-electron system (eV)
  ---------------------------------------------------
  alpha Z        PSCENC =       232.01864142
  Ewald energy   TEWEN  =     96717.45839256
  -Hartree energ DENC   =   -105239.55105392
  -exchange      EXHF   =         0.00000000
  -V(xc)+E(xc)   XCENC  =       -77.85749173
  PAW double counting   =      7914.62896321    -7402.28165193
  entropy T*S    EENTRO =         0.00000000
  eigenvalues    EBANDS =     -1759.10486278
  atomic energy  EATOM  =      9511.64854214
  Solvation  Ediel_sol  =         0.00000000
  ---------------------------------------------------
  free energy    TOTEN  =      -103.04052103 eV

  energy without entropy =     -103.04052103  energy(sigma->0) =     -103.04052103


--------------------------------------------------------------------------------------------------------




----------------------------------------- Iteration    1(   4)  ---------------------------------------


     EDDAV:  cpu time    6.4820: real time    6.4882
 BZINTS: Fermi energy:  1.777299;104.000000 electrons
         Band energy:***********;  BLOECHL correction:  0.000000
       DOS:  cpu time    0.0050: real time    0.0049
    --------------------------------------------
      LOOP:  cpu time    6.4880: real time    6.4979

 eigenvalue-minimisations  :  8400
 total energy-change (2. order) :-0.6649084E+00  (-0.6644646E+00)
 number of electron     104.0000000 magnetization 
 augmentation part      104.0000000 magnetization 

 Free energy of the ion-electron system (eV)
  ---------------------------------------------------
  alpha Z        PSCENC =       232.01864142
  Ewald energy   TEWEN  =     96717.45839256
  -Hartree energ DENC   =   -105239.55105392
  -exchange      EXHF   =         0.00000000
  -V(xc)+E(xc)   XCENC  =       -77.85749173
  PAW double counting   =      7914.62896321    -7402.28165193
  entropy T*S    EENTRO =         0.00000000
  eigenvalues    EBANDS =     -1759.76977119
  atomic energy  EATOM  =      9511.64854214
  Solvation  Ediel_sol  =         0.00000000
  ---------------------------------------------------
  free energy    TOTEN  =      -103.70542945 eV

  energy without entropy =     -103.70542945  energy(sigma->0) =     -103.70542945


--------------------------------------------------------------------------------------------------------




----------------------------------------- Iteration    1(   5)  ---------------------------------------


     EDDAV:  cpu time    6.6890: real time    6.6957
 BZINTS: Fermi energy:  1.769846;104.000000 electrons
         Band energy:***********;  BLOECHL correction:  0.000000
       DOS:  cpu time    0.0050: real time    0.0051
    CHARGE:  cpu time    0.1630: real time    0.1627
    MIXING:  cpu time    0.0020: real time    0.0011
    --------------------------------------------
      LOOP:  cpu time    6.8600: real time    6.8679

 eigenvalue-minimisations  :  8540
 total energy-change (2. order) :-0.9528919E-02  (-0.9528271E-02)
 number of electron     104.0000001 magnetization 
 augmentation part      -17.6957621 magnetization 

 Broyden mixing:
  rms(total) = 0.15341E+02    rms(broyden)= 0.15341E+02
  rms(prec ) = 0.15345E+02
  weight for this iteration     100.00

 Free energy of the ion-electron system (eV)
  ---------------------------------------------------
  alpha Z        PSCENC =       232.01864142
  Ewald energy   TEWEN  =     96717.45839256
  -Hartree energ DENC   =   -105239.55105392
  -exchange      EXHF   =         0.00000000
  -V(xc)+E(xc)   XCENC  =       -77.85749173
  PAW double counting   =      7914.62896321    -7402.28165193
  entropy T*S    EENTRO =         0.00000000
  eigenvalues    EBANDS =     -1759.77930011
  atomic energy  EATOM  =      9511.64854214
  Solvation  Ediel_sol  =         0.00000000
  ---------------------------------------------------
  free energy    TOTEN  =      -103.71495837 eV

  energy without entropy =     -103.71495837  energy(sigma->0) =     -103.71495837


--------------------------------------------------------------------------------------------------------




----------------------------------------- Iteration    1(   6)  ---------------------------------------


    POTLOK:  cpu time    0.0280: real time    0.0282
    SETDIJ:  cpu time    0.0060: real time    0.0059
     EDDAV:  cpu time    5.6111: real time    5.6182
 BZINTS: Fermi energy:  0.341498;104.000000 electrons
         Band energy:***********;  BLOECHL correction:  0.000000
       DOS:  cpu time    0.0040: real time    0.0050
    CHARGE:  cpu time    0.1760: real time    0.1749
    MIXING:  cpu time    0.0000: real time    0.0010
    --------------------------------------------
      LOOP:  cpu time    5.8251: real time    5.8367

 eigenvalue-minimisations  :  6468
 total energy-change (2. order) : 0.7727742E+01  (-0.3059196E+01)
 number of electron     104.0000000 magnetization 
 augmentation part      -16.5420031 magnetization 

 Broyden mixing:
  rms(total) = 0.14119E+02    rms(broyden)= 0.14119E+02
  rms(prec ) = 0.14120E+02
  weight for this iteration     100.00

 eigenvalues of (default mixing * dielectric matrix)
  average eigenvalue GAMMA=   3.7064
  3.7064

 Free energy of the ion-electron system (eV)
  ---------------------------------------------------
  alpha Z        PSCENC =       232.01864142
  Ewald energy   TEWEN  =     96717.45839256
  -Hartree energ DENC   =   -105081.46670746
  -exchange      EXHF   =         0.00000000
  -V(xc)+E(xc)   XCENC  =       -80.71342063
  PAW double counting   =      9675.92337918    -9169.54209932
  entropy T*S    EENTRO =         0.00000000
  eigenvalues    EBANDS =     -1901.31394379
  atomic energy  EATOM  =      9511.64854214
  Solvation  Ediel_sol  =         0.00000000
  ---------------------------------------------------
  free energy    TOTEN  =       -95.98721589 eV

  energy without entropy =      -95.98721589  energy(sigma->0) =      -95.98721589


--------------------------------------------------------------------------------------------------------




----------------------------------------- Iteration    1(   7)  ---------------------------------------


    POTLOK:  cpu time    0.0290: real time    0.0296
    SETDIJ:  cpu time    0.0060: real time    0.0060
     EDDAV:  cpu time    6.8460: real time    6.8554
 BZINTS: Fermi energy:  3.244603;104.000000 electrons
         Band energy:***********;  BLOECHL correction:  0.000000
       DOS:  cpu time    0.0050: real time    0.0049
    CHARGE:  cpu time    0.1800: real time    0.1796
    MIXING:  cpu time    0.0010: real time    0.0011
    --------------------------------------------
      LOOP:  cpu time    7.0679: real time    7.0790

 eigenvalue-minimisations  :  8092
 total energy-change (2. order) :-0.1391386E+02  (-0.6675714E+01)
 number of electron     104.0000000 magnetization 
 augmentation part      -17.7651416 magnetization 

 Broyden mixing:
  rms(total) = 0.11669E+02    rms(broyden)= 0.11669E+02
  rms(prec ) = 0.11682E+02
  weight for this iteration     100.00

 eigenvalues of (default mixing * dielectric matrix)
  average eigenvalue GAMMA=   1.5062
  0.8185  2.1939

 Free energy of the ion-electron system (eV)
  ---------------------------------------------------
  alpha Z        PSCENC =       232.01864142
  Ewald energy   TEWEN  =     96717.45839256
  -Hartree energ DENC   =   -105353.01331732
  -exchange      EXHF   =         0.00000000
  -V(xc)+E(xc)   XCENC  =       -79.46599935
  PAW double counting   =     15506.16518624   -14985.71235650
  entropy T*S    EENTRO =         0.00000000
  eigenvalues    EBANDS =     -1659.00016532
  atomic energy  EATOM  =      9511.64854214
  Solvation  Ediel_sol  =         0.00000000
  ---------------------------------------------------
  free energy    TOTEN  =      -109.90107614 eV

  energy without entropy =     -109.90107614  energy(sigma->0) =     -109.90107614


--------------------------------------------------------------------------------------------------------




----------------------------------------- Iteration    1(   8)  ---------------------------------------


    POTLOK:  cpu time    0.0290: real time    0.0292
    SETDIJ:  cpu time    0.0060: real time    0.0061
     EDDAV:  cpu time    6.2371: real time    6.3083
 BZINTS: Fermi energy:  0.765917;104.000000 electrons
         Band energy:***********;  BLOECHL correction:  0.000000
       DOS:  cpu time    0.0040: real time    0.0044
    CHARGE:  cpu time    0.1640: real time    0.1634
    MIXING:  cpu time    0.0010: real time    0.0010
    --------------------------------------------
      LOOP:  cpu time    6.4420: real time    6.5149

 eigenvalue-minimisations  :  7476
 total energy-change (2. order) : 0.1563646E+02  (-0.3492727E+01)
 number of electron     104.0000000 magnetization 
 augmentation part      -16.8230522 magnetization 

 Broyden mixing:
  rms(total) = 0.36019E+00    rms(broyden)= 0.35987E+00
  rms(prec ) = 0.36016E+00
  weight for this iteration     100.00

 eigenvalues of (default mixing * dielectric matrix)
  average eigenvalue GAMMA=   1.4436
  2.3430  1.1979  0.7899

 Free energy of the ion-electron system (eV)
  ---------------------------------------------------
  alpha Z        PSCENC =       232.01864142
  Ewald energy   TEWEN  =     96717.45839256
  -Hartree energ DENC   =   -105142.58417697
  -exchange      EXHF   =         0.00000000
  -V(xc)+E(xc)   XCENC  =       -81.01491369
  PAW double counting   =     12842.25121055   -12329.97136764
  entropy T*S    EENTRO =         0.00000000
  eigenvalues    EBANDS =     -1844.07094541
  atomic energy  EATOM  =      9511.64854214
  Solvation  Ediel_sol  =         0.00000000
  ---------------------------------------------------
  free energy    TOTEN  =       -94.26461706 eV

  energy without entropy =      -94.26461706  energy(sigma->0) =      -94.26461706


--------------------------------------------------------------------------------------------------------




----------------------------------------- Iteration    1(   9)  ---------------------------------------


    POTLOK:  cpu time    0.0280: real time    0.0281
    SETDIJ:  cpu time    0.0060: real time    0.0060
     EDDAV:  cpu time    6.7550: real time    6.9906
 BZINTS: Fermi energy:  0.746532;104.000000 electrons
         Band energy:***********;  BLOECHL correction:  0.000000
       DOS:  cpu time    0.0050: real time    0.0045
    CHARGE:  cpu time    0.1600: real time    0.1683
    MIXING:  cpu time    0.0010: real time    0.0010
    --------------------------------------------
      LOOP:  cpu time    6.9549: real time    7.2015

 eigenvalue-minimisations  :  8652
 total energy-change (2. order) :-0.3451086E+00  (-0.3550578E+00)
 number of electron     104.0000000 magnetization 
 augmentation part      -16.7784956 magnetization 

 Broyden mixing:
  rms(total) = 0.99741E+00    rms(broyden)= 0.99739E+00
  rms(prec ) = 0.99766E+00
  weight for this iteration     100.00

 eigenvalues of (default mixing * dielectric matrix)
  average eigenvalue GAMMA=   1.1458
  2.1967  1.3862  0.7754  0.2248

 Free energy of the ion-electron system (eV)
  ---------------------------------------------------
  alpha Z        PSCENC =       232.01864142
  Ewald energy   TEWEN  =     96717.45839256
  -Hartree energ DENC   =   -105141.79530155
  -exchange      EXHF   =         0.00000000
  -V(xc)+E(xc)   XCENC  =       -80.99443388
  PAW double counting   =     12898.27715862   -12385.53832114
  entropy T*S    EENTRO =         0.00000000
  eigenvalues    EBANDS =     -1845.68440383
  atomic energy  EATOM  =      9511.64854214
  Solvation  Ediel_sol  =         0.00000000
  ---------------------------------------------------
  free energy    TOTEN  =       -94.60972565 eV

  energy without entropy =      -94.60972565  energy(sigma->0) =      -94.60972565


--------------------------------------------------------------------------------------------------------




----------------------------------------- Iteration    1(  10)  ---------------------------------------


    POTLOK:  cpu time    0.0300: real time    0.0415
    SETDIJ:  cpu time    0.0060: real time    0.0061
     EDDAV:  cpu time    6.7630: real time    6.9246
 BZINTS: Fermi energy:  0.969052;104.000000 electrons
         Band energy:***********;  BLOECHL correction:  0.000000
       DOS:  cpu time    0.0050: real time    0.0049
    CHARGE:  cpu time    0.1880: real time    0.1887
    MIXING:  cpu time    0.0010: real time    0.0011
    --------------------------------------------
      LOOP:  cpu time    6.9939: real time    7.1703

 eigenvalue-minimisations  :  8148
 total energy-change (2. order) : 0.5488228E-02  (-0.2793100E-02)
 number of electron     104.0000000 magnetization 
 augmentation part      -16.7806725 magnetization 

 Broyden mixing:
  rms(total) = 0.72096E+00    rms(broyden)= 0.72095E+00
  rms(prec ) = 0.72123E+00
  weight for this iteration     100.00

 eigenvalues of (default mixing * dielectric matrix)
  average eigenvalue GAMMA=   1.2883
  2.0017  2.0017  0.8063  0.8159  0.8159

 Free energy of the ion-electron system (eV)
  ---------------------------------------------------
  alpha Z        PSCENC =       232.01864142
  Ewald energy   TEWEN  =     96717.45839256
  -Hartree energ DENC   =   -105144.23815512
  -exchange      EXHF   =         0.00000000
  -V(xc)+E(xc)   XCENC  =       -80.94758930
  PAW double counting   =     12769.17094506   -12256.32346237
  entropy T*S    EENTRO =         0.00000000
  eigenvalues    EBANDS =     -1843.39155181
  atomic energy  EATOM  =      9511.64854214
  Solvation  Ediel_sol  =         0.00000000
  ---------------------------------------------------
  free energy    TOTEN  =       -94.60423743 eV

  energy without entropy =      -94.60423743  energy(sigma->0) =      -94.60423743


--------------------------------------------------------------------------------------------------------




----------------------------------------- Iteration    1(  11)  ---------------------------------------


    POTLOK:  cpu time    0.0290: real time    0.0304
    SETDIJ:  cpu time    0.0060: real time    0.0061
     EDDAV:  cpu time    7.0009: real time    7.1775
 BZINTS: Fermi energy:  0.941967;104.000000 electrons
         Band energy:***********;  BLOECHL correction:  0.000000
       DOS:  cpu time    0.0090: real time    0.0089
    CHARGE:  cpu time    0.1760: real time    0.1761
    MIXING:  cpu time    0.0010: real time    0.0012
    --------------------------------------------
      LOOP:  cpu time    7.2229: real time    7.4037

 eigenvalue-minimisations  :  8540
 total energy-change (2. order) : 0.1205614E-01  (-0.8173254E-03)
 number of electron     104.0000000 magnetization 
 augmentation part      -16.7870736 magnetization 

 Broyden mixing:
  rms(total) = 0.31003E+00    rms(broyden)= 0.31003E+00
  rms(prec ) = 0.31031E+00
  weight for this iteration     100.00

 eigenvalues of (default mixing * dielectric matrix)
  average eigenvalue GAMMA=   1.3663
  2.3471  2.3471  1.1068  0.8692  0.8692  0.6585

 Free energy of the ion-electron system (eV)
  ---------------------------------------------------
  alpha Z        PSCENC =       232.01864142
  Ewald energy   TEWEN  =     96717.45839256
  -Hartree energ DENC   =   -105151.18683960
  -exchange      EXHF   =         0.00000000
  -V(xc)+E(xc)   XCENC  =       -80.84851043
  PAW double counting   =     12510.68605969   -11997.35649136
  entropy T*S    EENTRO =         0.00000000
  eigenvalues    EBANDS =     -1837.01197570
  atomic energy  EATOM  =      9511.64854214
  Solvation  Ediel_sol  =         0.00000000
  ---------------------------------------------------
  free energy    TOTEN  =       -94.59218128 eV

  energy without entropy =      -94.59218128  energy(sigma->0) =      -94.59218128


--------------------------------------------------------------------------------------------------------




----------------------------------------- Iteration    1(  12)  ---------------------------------------


    POTLOK:  cpu time    0.0290: real time    0.0298
    SETDIJ:  cpu time    0.0060: real time    0.0061
     EDDAV:  cpu time    6.4710: real time    6.4800
 BZINTS: Fermi energy:  0.915036;104.000000 electrons
         Band energy:***********;  BLOECHL correction:  0.000000
       DOS:  cpu time    0.0050: real time    0.0049
    CHARGE:  cpu time    0.1810: real time    0.1811
    MIXING:  cpu time    0.0020: real time    0.0017
    --------------------------------------------
      LOOP:  cpu time    6.6950: real time    6.7058

 eigenvalue-minimisations  :  8148
 total energy-change (2. order) : 0.8108180E-02  (-0.1744204E-02)
 number of electron     104.0000000 magnetization 
 augmentation part      -16.7991070 magnetization 

 Broyden mixing:
  rms(total) = 0.48287E-01    rms(broyden)= 0.48285E-01
  rms(prec ) = 0.48358E-01
  weight for this iteration     100.00

 eigenvalues of (default mixing * dielectric matrix)
  average eigenvalue GAMMA=   1.3430
  2.4412  2.4412  1.0246  0.9676  0.9676  0.7795  0.7795

 Free energy of the ion-electron system (eV)
  ---------------------------------------------------
  alpha Z        PSCENC =       232.01864142
  Ewald energy   TEWEN  =     96717.45839256
  -Hartree energ DENC   =   -105161.14971013
  -exchange      EXHF   =         0.00000000
  -V(xc)+E(xc)   XCENC  =       -80.73984675
  PAW double counting   =     12277.24096848   -11763.34789321
  entropy T*S    EENTRO =         0.00000000
  eigenvalues    EBANDS =     -1827.71316760
  atomic energy  EATOM  =      9511.64854214
  Solvation  Ediel_sol  =         0.00000000
  ---------------------------------------------------
  free energy    TOTEN  =       -94.58407310 eV

  energy without entropy =      -94.58407310  energy(sigma->0) =      -94.58407310


--------------------------------------------------------------------------------------------------------




----------------------------------------- Iteration    1(  13)  ---------------------------------------


    POTLOK:  cpu time    0.0320: real time    0.0321
    SETDIJ:  cpu time    0.0060: real time    0.0062
     EDDAV:  cpu time    6.8510: real time    6.8604
 BZINTS: Fermi energy:  0.987150;104.000000 electrons
         Band energy:***********;  BLOECHL correction:  0.000000
       DOS:  cpu time    0.0050: real time    0.0043
    CHARGE:  cpu time    0.1800: real time    0.1806
    MIXING:  cpu time    0.0010: real time    0.0012
    --------------------------------------------
      LOOP:  cpu time    7.0749: real time    7.0894

 eigenvalue-minimisations  :  8120
 total energy-change (2. order) :-0.2215953E-05  (-0.3156951E-03)
 number of electron     104.0000000 magnetization 
 augmentation part      -16.8023276 magnetization 

 Broyden mixing:
  rms(total) = 0.22972E-01    rms(broyden)= 0.22971E-01
  rms(prec ) = 0.23039E-01
  weight for this iteration     100.00

 eigenvalues of (default mixing * dielectric matrix)
  average eigenvalue GAMMA=   1.4086
  2.4656  2.4656  1.4056  1.4056  1.2075  0.7649  0.7649  0.7893

 Free energy of the ion-electron system (eV)
  ---------------------------------------------------
  alpha Z        PSCENC =       232.01864142
  Ewald energy   TEWEN  =     96717.45839256
  -Hartree energ DENC   =   -105163.51310824
  -exchange      EXHF   =         0.00000000
  -V(xc)+E(xc)   XCENC  =       -80.72280592
  PAW double counting   =     12239.94224140   -11726.03168789
  entropy T*S    EENTRO =         0.00000000
  eigenvalues    EBANDS =     -1825.38429079
  atomic energy  EATOM  =      9511.64854214
  Solvation  Ediel_sol  =         0.00000000
  ---------------------------------------------------
  free energy    TOTEN  =       -94.58407532 eV

  energy without entropy =      -94.58407532  energy(sigma->0) =      -94.58407532


--------------------------------------------------------------------------------------------------------




----------------------------------------- Iteration    1(  14)  ---------------------------------------


    POTLOK:  cpu time    0.0300: real time    0.0305
    SETDIJ:  cpu time    0.0060: real time    0.0061
     EDDAV:  cpu time    7.3309: real time    7.3378
 BZINTS: Fermi energy:  0.989934;104.000000 electrons
         Band energy:***********;  BLOECHL correction:  0.000000
       DOS:  cpu time    0.0040: real time    0.0044
    CHARGE:  cpu time    0.1680: real time    0.1683
    MIXING:  cpu time    0.0010: real time    0.0012
    --------------------------------------------
      LOOP:  cpu time    7.5409: real time    7.5510

 eigenvalue-minimisations  :  8792
[...]
    LRDIAG:  cpu time    0.2110: real time    0.2109
    LRDIIS:  cpu time    4.1754: real time    4.1763
    LRDIAG:  cpu time    0.2100: real time    0.2105
    MIXING:  cpu time    0.0020: real time    0.0017
    --------------------------------------------
      LOOP:  cpu time    6.2650: real time    6.2713

 Broyden mixing:
  rms(total) = 0.46668E-05    rms(broyden)= 0.46662E-05
  rms(prec ) = 0.51727E-05
  weight for this iteration     100.00

 eigenvalues of (default mixing * dielectric matrix)
  average eigenvalue GAMMA=   2.2993
  8.8597  6.5237  4.1740  3.5218  2.6507  2.6507  2.0887  1.7448  1.5937  1.0663
  0.9357  0.9357  0.9652  0.9652  0.7440  0.6665  0.6477  0.6532

 Free energy of the ion-electron system (eV)
  ---------------------------------------------------
  -Hartree energ DENC   =        -0.83687833
  -V(xc)+E(xc)   XCENC  =         0.01455754
  PAW double counting   =         0.03885701       -0.03857410
  entropy T*S    EENTRO =         0.00000000
  eigenvalues    EBANDS =        -0.26883197
  ---------------------------------------------------
  free energy    TOTEN  =        -1.09086986 eV

  energy without entropy =       -1.09086986


----------------------------------------- Iteration    3(  21)  ---------------------------------------


   POT+DIJ:  cpu time    0.0730: real time    0.0733
    HAMIL1:  cpu time    1.1348: real time    1.1358
    LRDIAG:  cpu time    0.2120: real time    0.2112
    LRDIIS:  cpu time    4.2464: real time    4.2488
    LRDIAG:  cpu time    0.2060: real time    0.2061
    MIXING:  cpu time    0.0010: real time    0.0018
    --------------------------------------------
      LOOP:  cpu time    6.3260: real time    6.3319

 Broyden mixing:
  rms(total) = 0.23520E-05    rms(broyden)= 0.23518E-05
  rms(prec ) = 0.26683E-05
  weight for this iteration     100.00

 eigenvalues of (default mixing * dielectric matrix)
  average eigenvalue GAMMA=   2.3314
  8.8963  6.6384  4.3918  3.6371  2.7784  2.7784  2.1372  2.1372  1.8071  1.5771
  0.9353  0.9353  0.9981  0.9981  0.9371  0.7440  0.6665  0.6477  0.6554

 Free energy of the ion-electron system (eV)
  ---------------------------------------------------
  -Hartree energ DENC   =        -0.83688378
  -V(xc)+E(xc)   XCENC  =         0.01455796
  PAW double counting   =         0.03884947       -0.03856646
  entropy T*S    EENTRO =         0.00000000
  eigenvalues    EBANDS =        -0.26882460
  ---------------------------------------------------
  free energy    TOTEN  =        -1.09086741 eV

  energy without entropy =       -1.09086741


----------------------------------------- Iteration    3(  22)  ---------------------------------------


   POT+DIJ:  cpu time    0.0720: real time    0.0725
    HAMIL1:  cpu time    1.1468: real time    1.1483
    LRDIAG:  cpu time    0.2120: real time    0.2115
    LRDIIS:  cpu time    4.1074: real time    4.1090
    LRDIAG:  cpu time    0.2070: real time    0.2068
    MIXING:  cpu time    0.0020: real time    0.0018
    --------------------------------------------
      LOOP:  cpu time    6.2031: real time    6.2081

 Broyden mixing:
  rms(total) = 0.12971E-05    rms(broyden)= 0.12970E-05
  rms(prec ) = 0.15187E-05
  weight for this iteration     100.00

 eigenvalues of (default mixing * dielectric matrix)
  average eigenvalue GAMMA=   2.2849
  8.9234  6.6681  4.4291  3.7848  2.8892  2.8892  2.1746  2.1746  1.6481  1.6481
  1.0475  0.9932  0.9345  0.9345  0.9206  0.9206  0.7440  0.6477  0.6665  0.6589

 Free energy of the ion-electron system (eV)
  ---------------------------------------------------
  -Hartree energ DENC   =        -0.83688537
  -V(xc)+E(xc)   XCENC  =         0.01455779
  PAW double counting   =         0.03884930       -0.03856626
  entropy T*S    EENTRO =         0.00000000
  eigenvalues    EBANDS =        -0.26883137
  ---------------------------------------------------
  free energy    TOTEN  =        -1.09087590 eV

  energy without entropy =       -1.09087590


----------------------------------------- Iteration    3(  23)  ---------------------------------------


   POT+DIJ:  cpu time    0.0720: real time    0.0726
    HAMIL1:  cpu time    1.1408: real time    1.1419
    LRDIAG:  cpu time    0.2110: real time    0.2115
    LRDIIS:  cpu time    3.4925: real time    3.4927
    LRDIAG:  cpu time    0.2070: real time    0.2067
    MIXING:  cpu time    0.0020: real time    0.0019
    --------------------------------------------
      LOOP:  cpu time    5.5762: real time    5.5800

 Broyden mixing:
  rms(total) = 0.59866E-06    rms(broyden)= 0.59863E-06
  rms(prec ) = 0.85686E-06
  weight for this iteration     100.00

 eigenvalues of (default mixing * dielectric matrix)
  average eigenvalue GAMMA=   2.2909
  8.9376  6.6909  4.3458  4.1532  2.9905  2.9905  2.2438  2.2438  1.8017  1.8017
  1.5390  0.9358  0.9358  0.9974  0.9974  0.9572  0.7440  0.8263  0.6477  0.6665
  0.6626

 Free energy of the ion-electron system (eV)
  ---------------------------------------------------
  -Hartree energ DENC   =        -0.83688403
  -V(xc)+E(xc)   XCENC  =         0.01455765
  PAW double counting   =         0.03885129       -0.03856825
  entropy T*S    EENTRO =         0.00000000
  eigenvalues    EBANDS =        -0.26884749
  ---------------------------------------------------
  free energy    TOTEN  =        -1.09089084 eV

  energy without entropy =       -1.09089084


------------------------ aborting loop because EDIFF is reached ----------------------------------------


 change of polarisation eV/A/(eV/A) component  3 :    -0.006     0.001     2.143
 dielectric tensor                  component  3 :    -0.002     0.001     1.813


--------------------------------------------------------------------------------------------------------


    FORLOC:  cpu time    0.0030: real time    0.0030
    FORNL :  cpu time    1.1258: real time    1.1261
    STRESS:  cpu time    3.2195: real time    3.2201
    FORCOR:  cpu time    0.0290: real time    0.0287
    OFIELD:  cpu time    0.0000: real time    0.0002

  Hirshfeld charges:
            ion         q(e)     
   ------------------------------
      1     W           0.285
      2     W           0.284
      3     W           0.284
      4     W           0.285
      5     Se         -0.142
      6     Se         -0.143
      7     Se         -0.142
      8     Se         -0.142
      9     Se         -0.142
     10     Se         -0.142
     11     Se         -0.143
     12     Se         -0.142

  Tkatchenko/Scheffler method for vdW energy calculation
  ---------------------------------------------------------------------------------------------

  Parameters of vdW forcefield:
            C6ts              R0ts           ALPHAts        RELVOL
            (au)              (au)            (au)                
   ---------------------------------------------------------------
   W         896.449          4.120         73.045          1.028
   W         902.595          4.125         73.295          1.032
   W         902.595          4.125         73.295          1.032
   W         896.449          4.120         73.045          1.028
   Se        213.932          4.057         25.233          1.009
   Se        209.414          4.042         24.965          0.999
   Se        213.940          4.057         25.233          1.009
   Se        213.925          4.057         25.232          1.009
   Se        213.925          4.057         25.232          1.009
   Se        213.939          4.057         25.233          1.009
   Se        209.414          4.042         24.965          0.999
   Se        213.931          4.057         25.233          1.009
  Edisp (eV):   -3.37267
    FORVDW:  cpu time    0.3509: real time    0.3500
    FORLOC:  cpu time    0.0030: real time    0.0030
    FORNL :  cpu time    1.1288: real time    1.1291
    STRESS:  cpu time    3.2215: real time    3.2223
    FORCOR:  cpu time    0.0290: real time    0.0290
    OFIELD:  cpu time    0.0010: real time    0.0002

  Hirshfeld charges:
            ion         q(e)     
   ------------------------------
      1     W           0.285
      2     W           0.284
      3     W           0.284
      4     W           0.285
      5     Se         -0.142
      6     Se         -0.143
      7     Se         -0.142
      8     Se         -0.142
      9     Se         -0.142
     10     Se         -0.142
     11     Se         -0.143
     12     Se         -0.142

  Tkatchenko/Scheffler method for vdW energy calculation
  ---------------------------------------------------------------------------------------------

  Parameters of vdW forcefield:
            C6ts              R0ts           ALPHAts        RELVOL
            (au)              (au)            (au)                
   ---------------------------------------------------------------
   W         896.449          4.120         73.045          1.028
   W         902.595          4.125         73.295          1.032
   W         902.595          4.125         73.295          1.032
   W         896.449          4.120         73.045          1.028
   Se        213.931          4.057         25.233          1.009
   Se        209.414          4.042         24.965          0.999
   Se        213.939          4.057         25.233          1.009
   Se        213.925          4.057         25.232          1.009
   Se        213.925          4.057         25.232          1.009
   Se        213.940          4.057         25.233          1.009
   Se        209.414          4.042         24.965          0.999
   Se        213.932          4.057         25.233          1.009
  Edisp (eV):   -3.37267
    FORVDW:  cpu time    0.3499: real time    0.3504
    FORNLD:  cpu time    2.7516: real time    2.7521

 PIEZOELECTRIC TENSOR FIELD DIRECTION 3  (e Angst)
 -----------------------------------------------------------------------------
    -0.01604  0.00000  0.00000           ( -0.00000 -0.00000  0.00000)
     0.00000 -0.01604  0.00000           ( -0.00000 -0.00000 -0.00000)
     0.00000 -0.00000 -0.04180           (  0.00000 -0.00000  0.00000)

 PIEZOELECTRIC TENSOR FIELD DIRECTION 3  (C/m^2)
 -----------------------------------------------------------------------------
    -0.00054  0.00000  0.00000
     0.00000 -0.00054  0.00000
     0.00000 -0.00000 -0.00140


      POSITION         DIRECTION 3           BORN EFFECTIVE CHARGE    (rigid.aug.   ionic)
 -----------------------------------------------------------------------------------------
     -0.00000      0.95811     15.26500     0.00000  0.00000-32.44694 (  1.95585 14.00000)
      1.65950      1.91623     21.75500    -0.00000  0.00000 -4.34441 (  1.95582 14.00000)
     -0.00000      0.95811     28.24500    -0.00000 -0.00000 -4.34195 (  1.95582 14.00000)
      1.65950      1.91623     34.73500    -0.00000 -0.00000-32.48195 (  1.95585 14.00000)
      1.65950      1.91623     16.94428    -0.00000  0.00000 -1.13294 (  1.12261  6.00000)
      1.65950      1.91623     13.58572    -0.00000  0.00000  2.81722 (  1.12106  6.00000)
     -0.00000      0.95811     23.43428    -0.00000  0.00000  0.22029 (  1.12267  6.00000)
     -0.00000      0.95811     20.07572    -0.00000  0.00000  0.54761 (  1.12265  6.00000)
      1.65950      1.91623     29.92428    -0.00000  0.00000  0.66627 (  1.12265  6.00000)
      1.65950      1.91623     26.56572    -0.00000 -0.00000  0.27207 (  1.12267  6.00000)
     -0.00000      0.95811     36.41428    -0.00000  0.00000  2.75132 (  1.12106  6.00000)
     -0.00000      0.95811     33.05572     0.00000  0.00000 -1.28960 (  1.12261  6.00000)
 -----------------------------------------------------------------------------------------
    total drift (improves with k-points):  -0.00000  0.00000-68.76300




--------------------------------------------------------------------------------------------------------


  LATTYP: Found a hexagonal cell.
 ALAT       =     3.3190066245
 C/A-ratio  =    15.0647484797
  
  Lattice vectors:
  
 A1 = (   3.3190066245,   0.0000000000,   0.0000000000)
 A2 = (  -1.6595033122,   2.8743440521,   0.0000000000)
 A3 = (   0.0000000000,   0.0000000000,  50.0000000000)


Analysis of symmetry for initial positions (statically):
=====================================================================
 Subroutine PRICEL returns:
 Original cell was already a primitive cell.
 

 Routine SETGRP: Setting up the symmetry group for a 
 hexagonal supercell.


 Subroutine GETGRP returns: Found 12 space group operations
 (whereof  4 operations were pure point group operations)
 out of a pool of 24 trial point group operations.


The static configuration has the point symmetry C_2h.
 The point group associated with its full space group is D_3d.


Analysis of symmetry for dynamics (positions and initial velocities):
=====================================================================
 Subroutine PRICEL returns:
 Original cell was already a primitive cell.
 

 Routine SETGRP: Setting up the symmetry group for a 
 hexagonal supercell.


 Subroutine GETGRP returns: Found 12 space group operations
 (whereof  4 operations were pure point group operations)
 out of a pool of 24 trial point group operations.


The dynamic configuration has the point symmetry C_2h.
 The point group associated with its full space group is D_3d.


 Subroutine INISYM returns: Found 12 space group operations
 (whereof  4 operations are pure point group operations),
 and found     1 'primitive' translations



 MACROSCOPIC STATIC DIELECTRIC TENSOR (including local field effects in DFT)
 ------------------------------------------------------
           8.461208    -0.000000     0.000000
          -0.000000     8.461208     0.000000
           0.000000    -0.000000     1.813013
 ------------------------------------------------------



--------------------------------------------------------------------------------------------------------


  LATTYP: Found a hexagonal cell.
 ALAT       =     3.3190066245
 C/A-ratio  =    15.0647484797
  
  Lattice vectors:
  
 A1 = (   3.3190066245,   0.0000000000,   0.0000000000)
 A2 = (  -1.6595033122,   2.8743440521,   0.0000000000)
 A3 = (   0.0000000000,   0.0000000000,  50.0000000000)


Analysis of symmetry for initial positions (statically):
=====================================================================
 Subroutine PRICEL returns:
 Original cell was already a primitive cell.
 

 Routine SETGRP: Setting up the symmetry group for a 
 hexagonal supercell.


 Subroutine GETGRP returns: Found 12 space group operations
 (whereof  4 operations were pure point group operations)
 out of a pool of 24 trial point group operations.


The static configuration has the point symmetry C_2h.
 The point group associated with its full space group is D_3d.


Analysis of symmetry for dynamics (positions and initial velocities):
=====================================================================
 Subroutine PRICEL returns:
 Original cell was already a primitive cell.
 

 Routine SETGRP: Setting up the symmetry group for a 
 hexagonal supercell.


 Subroutine GETGRP returns: Found 12 space group operations
 (whereof  4 operations were pure point group operations)
 out of a pool of 24 trial point group operations.


The dynamic configuration has the point symmetry C_2h.
 The point group associated with its full space group is D_3d.


 Subroutine INISYM returns: Found 12 space group operations
 (whereof  4 operations are pure point group operations),
 and found     1 'primitive' translations



--------------------------------------------------------------------------------------------------------




 MACROSCOPIC STATIC DIELECTRIC TENSOR (including local field effects in DFT)
 ------------------------------------------------------
           8.461208    -0.000000     0.000000
          -0.000000     8.461208     0.000000
           0.000000    -0.000000     1.813013
 ------------------------------------------------------


 PIEZOELECTRIC TENSOR  for field in x, y, z        (e  Angst)
          XX          YY          ZZ          XY          YZ          ZX
  --------------------------------------------------------------------------------
  x    -0.00665     0.00934    -0.00097     0.00000     0.00018     0.00000
  y    -0.01034     0.01674     0.00279     0.00000     0.00026     0.00000
  z    -0.01604    -0.01604    -0.04180     0.00000    -0.00000     0.00000

 PIEZOELECTRIC TENSOR  for field in x, y, z        (C/m^2)
          XX          YY          ZZ          XY          YZ          ZX
  --------------------------------------------------------------------------------
  x     0.00000     0.00000     0.00000     0.00000     0.00000     0.00000
  y     0.00000     0.00000     0.00000     0.00000     0.00000     0.00000
  z     0.00000     0.00000     0.00000     0.00000     0.00000     0.00000
 
 BORN EFFECTIVE CHARGES (in e, cummulative output)
 -------------------------------------------------
 ion    1
    1    -1.14378    -0.00021     0.00002
    2     0.00000    -1.14448    -0.00003
    3     0.00000     0.00000   -32.44694
 ion    2
    1    -1.14991     0.00017     0.00000
    2     0.00000    -1.14915     0.00000
    3    -0.00000     0.00000    -4.34441
 ion    3
    1    -1.14991    -0.00017    -0.00000
    2     0.00000    -1.15071     0.00001
    3    -0.00000    -0.00000    -4.34195
 ion    4
    1    -1.14378     0.00021    -0.00002
    2     0.00000    -1.14307     0.00002
    3    -0.00000    -0.00000   -32.48195
 ion    5
    1     0.58430    -0.00164     0.00013
    2    -0.00000     0.58472     0.00104
    3    -0.00000     0.00000    -1.13294
 ion    6
    1     0.59216    -0.00158    -0.00007
    2    -0.00000     0.59255    -0.00065
    3    -0.00000     0.00000     2.81722
 ion    7
    1     0.59138     0.00167     0.00014
    2    -0.00000     0.59096     0.00102
    3    -0.00000     0.00000     0.22029
 ion    8
    1     0.59204     0.00168    -0.00015
    2    -0.00000     0.59164    -0.00102
    3    -0.00000     0.00000     0.54761
 ion    9
    1     0.59204    -0.00168     0.00015
    2     0.00000     0.59244     0.00103
    3    -0.00000     0.00000     0.66627
 ion   10
    1     0.59138    -0.00167    -0.00014
    2    -0.00000     0.59181    -0.00103
    3    -0.00000    -0.00000     0.27207
 ion   11
    1     0.59216     0.00158     0.00007
    2     0.00000     0.59179     0.00065
    3    -0.00000     0.00000     2.75132
 ion   12
    1     0.58430     0.00164    -0.00013
    2    -0.00000     0.58390    -0.00103
    3     0.00000     0.00000    -1.28960


--------------------------------------------------------------------------------------------------------


 writing wavefunctions
     LOOP+:  cpu time 1340.9351: real time 1344.3630
    4ORBIT:  cpu time    0.0000: real time    0.0000
 BZINTS: Fermi energy:  1.061358;104.000000 electrons
         Band energy:***********;  BLOECHL correction:  0.000000

 total amount of memory used by VASP on root node   147503. kBytes
========================================================================

   base      :      30000. kBytes
   nonl-proj :      96433. kBytes
   fftplans  :       1943. kBytes
   grid      :       7351. kBytes
   one-center:        389. kBytes
   wavefun   :      11387. kBytes
 
  
  
 General timing and accounting informations for this job:
 ========================================================
  
                  Total CPU time used (sec):     1343.804
                            User time (sec):     1313.274
                          System time (sec):       30.529
                         Elapsed time (sec):     1348.772
  
                   Maximum memory used (kb):      456208.
                   Average memory used (kb):           0.
  
                          Minor page faults:      8292094
                          Major page faults:           10
                 Voluntary context switches:         6103
