  12  12   0   0
  0.4547731E+02  0.3550076E-09  0.3550076E-09  0.5000000E-08  0.5000000E-15
  1.000000000000000E-004
  CAR 
 unknown system                          
     15.38364654    -75.72524070  301      2.47655418      1.00000000
    -75.725  0.0000E+00  0.0000E+00
    -75.422  0.0000E+00  0.0000E+00
    -75.118  0.0000E+00  0.0000E+00
    -74.814  0.0000E+00  0.0000E+00
    -74.510  0.0000E+00  0.0000E+00
    -74.207  0.0000E+00  0.0000E+00
    -73.903  0.0000E+00  0.0000E+00
    -73.599  0.0000E+00  0.0000E+00
    -73.296  0.0000E+00  0.0000E+00
    -72.992  0.0000E+00  0.0000E+00
    -72.688  0.0000E+00  0.0000E+00
    -72.385  0.0000E+00  0.0000E+00
    -72.081  0.0000E+00  0.0000E+00
    -71.777  0.0000E+00  0.0000E+00
    -71.473  0.0000E+00  0.8000E+01
    -71.170  0.0000E+00  0.8000E+01
    -70.866  0.0000E+00  0.8000E+01
    -70.562  0.0000E+00  0.8000E+01
    -70.259  0.0000E+00  0.8000E+01
    -69.955  0.0000E+00  0.8000E+01
    -69.651  0.0000E+00  0.8000E+01
    -69.348  0.0000E+00  0.8000E+01
    -69.044  0.0000E+00  0.8000E+01
    -68.740  0.0000E+00  0.8000E+01
    -68.437  0.0000E+00  0.8000E+01
    -68.133  0.0000E+00  0.8000E+01
    -67.829  0.0000E+00  0.8000E+01
    -67.525  0.0000E+00  0.8000E+01
    -67.222  0.0000E+00  0.8000E+01
    -66.918  0.0000E+00  0.8000E+01
    -66.614  0.0000E+00  0.8000E+01
    -66.311  0.0000E+00  0.8000E+01
    -66.007  0.0000E+00  0.8000E+01
    -65.703  0.0000E+00  0.8000E+01
    -65.400  0.0000E+00  0.8000E+01
    -65.096  0.0000E+00  0.8000E+01
    -64.792  0.0000E+00  0.8000E+01
    -64.488  0.0000E+00  0.8000E+01
    -64.185  0.0000E+00  0.8000E+01
    -63.881  0.0000E+00  0.8000E+01
    -63.577  0.0000E+00  0.8000E+01
    -63.274  0.0000E+00  0.8000E+01
    -62.970  0.0000E+00  0.8000E+01
    -62.666  0.0000E+00  0.8000E+01
    -62.363  0.0000E+00  0.8000E+01
    -62.059  0.0000E+00  0.8000E+01
    -61.755  0.0000E+00  0.8000E+01
    -61.452  0.0000E+00  0.8000E+01
    -61.148  0.0000E+00  0.8000E+01
    -60.844  0.0000E+00  0.8000E+01
    -60.540  0.0000E+00  0.8000E+01
    -60.237  0.0000E+00  0.8000E+01
    -59.933  0.0000E+00  0.8000E+01
    -59.629  0.0000E+00  0.8000E+01
    -59.326  0.0000E+00  0.8000E+01
    -59.022  0.0000E+00  0.8000E+01
    -58.718  0.0000E+00  0.8000E+01
    -58.415  0.0000E+00  0.8000E+01
    -58.111  0.0000E+00  0.8000E+01
    -57.807  0.0000E+00  0.8000E+01
    -57.503  0.0000E+00  0.8000E+01
    -57.200  0.0000E+00  0.8000E+01
    -56.896  0.0000E+00  0.8000E+01
    -56.592  0.0000E+00  0.8000E+01
    -56.289  0.0000E+00  0.8000E+01
    -55.985  0.0000E+00  0.8000E+01
    -55.681  0.0000E+00  0.8000E+01
    -55.378  0.0000E+00  0.8000E+01
    -55.074  0.0000E+00  0.8000E+01
    -54.770  0.0000E+00  0.8000E+01
    -54.467  0.0000E+00  0.8000E+01
    -54.163  0.0000E+00  0.8000E+01
    -53.859  0.0000E+00  0.8000E+01
    -53.555  0.0000E+00  0.8000E+01
    -53.252  0.0000E+00  0.8000E+01
    -52.948  0.0000E+00  0.8000E+01
    -52.644  0.0000E+00  0.8000E+01
    -52.341  0.0000E+00  0.8000E+01
    -52.037  0.0000E+00  0.8000E+01
    -51.733  0.0000E+00  0.8000E+01
    -51.430  0.0000E+00  0.8000E+01
    -51.126  0.0000E+00  0.8000E+01
    -50.822  0.0000E+00  0.8000E+01
    -50.518  0.0000E+00  0.8000E+01
    -50.215  0.0000E+00  0.8000E+01
    -49.911  0.0000E+00  0.8000E+01
    -49.607  0.0000E+00  0.8000E+01
    -49.304  0.0000E+00  0.8000E+01
    -49.000  0.0000E+00  0.8000E+01
    -48.696  0.0000E+00  0.8000E+01
    -48.393  0.0000E+00  0.8000E+01
    -48.089  0.0000E+00  0.8000E+01
    -47.785  0.0000E+00  0.8000E+01
    -47.481  0.0000E+00  0.8000E+01
    -47.178  0.0000E+00  0.8000E+01
    -46.874  0.0000E+00  0.8000E+01
    -46.570  0.0000E+00  0.8000E+01
    -46.267  0.0000E+00  0.8000E+01
    -45.963  0.0000E+00  0.8000E+01
    -45.659  0.0000E+00  0.8000E+01
    -45.356  0.0000E+00  0.8000E+01
    -45.052  0.0000E+00  0.8000E+01
    -44.748  0.0000E+00  0.8000E+01
    -44.445  0.0000E+00  0.8000E+01
    -44.141  0.0000E+00  0.8000E+01
    -43.837  0.0000E+00  0.8000E+01
    -43.533  0.0000E+00  0.8000E+01
    -43.230  0.0000E+00  0.8000E+01
    -42.926  0.0000E+00  0.8000E+01
    -42.622  0.0000E+00  0.8000E+01
    -42.319  0.0000E+00  0.8000E+01
    -42.015  0.0000E+00  0.8000E+01
    -41.711  0.0000E+00  0.8000E+01
    -41.408  0.0000E+00  0.8000E+01
    -41.104  0.0000E+00  0.8000E+01
    -40.800  0.0000E+00  0.8000E+01
    -40.496  0.0000E+00  0.8000E+01
    -40.193  0.0000E+00  0.8000E+01
    -39.889  0.0000E+00  0.8000E+01
    -39.585  0.0000E+00  0.8000E+01
    -39.282  0.0000E+00  0.8000E+01
    -38.978  0.0000E+00  0.8000E+01
    -38.674  0.0000E+00  0.8000E+01
    -38.371  0.0000E+00  0.8000E+01
    -38.067  0.0000E+00  0.8000E+01
    -37.763  0.0000E+00  0.8000E+01
    -37.460  0.0000E+00  0.8000E+01
    -37.156  0.0000E+00  0.8000E+01
    -36.852  0.0000E+00  0.8000E+01
    -36.548  0.0000E+00  0.8000E+01
    -36.245  0.0000E+00  0.8000E+01
    -35.941  0.0000E+00  0.8000E+01
    -35.637  0.0000E+00  0.3200E+02
    -35.334  0.0000E+00  0.3200E+02
    -35.030  0.0000E+00  0.3200E+02
    -34.726  0.0000E+00  0.3200E+02
    -34.423  0.0000E+00  0.3200E+02
    -34.119  0.0000E+00  0.3200E+02
    -33.815  0.0000E+00  0.3200E+02
    -33.511  0.0000E+00  0.3200E+02
    -33.208  0.0000E+00  0.3200E+02
    -32.904  0.0000E+00  0.3200E+02
    -32.600  0.0000E+00  0.3200E+02
    -32.297  0.0000E+00  0.3200E+02
    -31.993  0.0000E+00  0.3200E+02
    -31.689  0.0000E+00  0.3200E+02
    -31.386  0.0000E+00  0.3200E+02
    -31.082  0.0000E+00  0.3200E+02
    -30.778  0.0000E+00  0.3200E+02
    -30.474  0.0000E+00  0.3200E+02
    -30.171  0.0000E+00  0.3200E+02
    -29.867  0.0000E+00  0.3200E+02
    -29.563  0.0000E+00  0.3200E+02
    -29.260  0.0000E+00  0.3200E+02
    -28.956  0.0000E+00  0.3200E+02
    -28.652  0.0000E+00  0.3200E+02
    -28.349  0.0000E+00  0.3200E+02
    -28.045  0.0000E+00  0.3200E+02
    -27.741  0.0000E+00  0.3200E+02
    -27.438  0.0000E+00  0.3200E+02
    -27.134  0.0000E+00  0.3200E+02
    -26.830  0.0000E+00  0.3200E+02
    -26.526  0.0000E+00  0.3200E+02
    -26.223  0.0000E+00  0.3200E+02
    -25.919  0.0000E+00  0.3200E+02
    -25.615  0.0000E+00  0.3200E+02
    -25.312  0.0000E+00  0.3200E+02
    -25.008  0.0000E+00  0.3200E+02
    -24.704  0.0000E+00  0.3200E+02
    -24.401  0.0000E+00  0.3200E+02
    -24.097  0.0000E+00  0.3200E+02
    -23.793  0.0000E+00  0.3200E+02
    -23.489  0.0000E+00  0.3200E+02
    -23.186  0.0000E+00  0.3200E+02
    -22.882  0.0000E+00  0.3200E+02
    -22.578  0.0000E+00  0.3200E+02
    -22.275  0.0000E+00  0.3200E+02
    -21.971  0.0000E+00  0.3200E+02
    -21.667  0.0000E+00  0.3200E+02
    -21.364  0.0000E+00  0.3200E+02
    -21.060  0.0000E+00  0.3200E+02
    -20.756  0.0000E+00  0.3200E+02
    -20.453  0.0000E+00  0.3200E+02
    -20.149  0.0000E+00  0.3200E+02
    -19.845  0.0000E+00  0.3200E+02
    -19.541  0.0000E+00  0.3200E+02
    -19.238  0.0000E+00  0.3200E+02
    -18.934  0.0000E+00  0.3200E+02
    -18.630  0.0000E+00  0.3200E+02
    -18.327  0.0000E+00  0.3200E+02
    -18.023  0.0000E+00  0.3200E+02
    -17.719  0.0000E+00  0.3200E+02
    -17.416  0.0000E+00  0.3200E+02
    -17.112  0.0000E+00  0.3200E+02
    -16.808  0.0000E+00  0.3200E+02
    -16.504  0.0000E+00  0.3200E+02
    -16.201  0.0000E+00  0.3200E+02
    -15.897  0.0000E+00  0.3200E+02
    -15.593  0.0000E+00  0.3200E+02
    -15.290  0.0000E+00  0.3200E+02
    -14.986  0.0000E+00  0.3200E+02
    -14.682  0.0000E+00  0.3200E+02
    -14.379  0.0000E+00  0.3200E+02
    -14.075  0.0000E+00  0.3200E+02
    -13.771  0.0000E+00  0.3200E+02
    -13.468  0.0000E+00  0.3200E+02
    -13.164  0.0000E+00  0.3200E+02
    -12.860  0.0000E+00  0.3200E+02
    -12.556  0.0000E+00  0.3200E+02
    -12.253  0.0000E+00  0.3200E+02
    -11.949  0.0000E+00  0.3200E+02
    -11.645  0.0000E+00  0.3200E+02
    -11.342  0.0000E+00  0.3200E+02
    -11.038  0.0000E+00  0.3200E+02
    -10.734  0.5321E+00  0.3201E+02
    -10.431  0.2094E+01  0.3245E+02
    -10.127  0.2185E+01  0.3309E+02
     -9.823  0.2346E+01  0.3378E+02
     -9.519  0.4207E+01  0.3464E+02
     -9.216  0.6298E+01  0.3617E+02
     -8.912  0.7418E+01  0.3822E+02
     -8.608  0.1540E+02  0.4090E+02
     -8.305  0.1147E+02  0.4450E+02
     -8.001  0.6489E+01  0.4774E+02
     -7.697  0.0000E+00  0.4800E+02
     -7.394  0.0000E+00  0.4800E+02
     -7.090  0.0000E+00  0.4800E+02
     -6.786  0.0000E+00  0.4800E+02
     -6.482  0.0000E+00  0.4800E+02
     -6.179  0.0000E+00  0.4800E+02
     -5.875  0.0000E+00  0.4800E+02
     -5.571  0.0000E+00  0.4800E+02
     -5.268  0.0000E+00  0.4800E+02
     -4.964  0.0000E+00  0.4800E+02
     -4.660  0.0000E+00  0.4800E+02
     -4.357  0.0000E+00  0.4800E+02
     -4.053  0.0000E+00  0.4800E+02
     -3.749  0.0000E+00  0.4800E+02
     -3.446  0.3644E+01  0.4845E+02
     -3.142  0.4753E+01  0.4978E+02
     -2.838  0.7812E+01  0.5161E+02
     -2.534  0.8027E+01  0.5383E+02
     -2.231  0.1013E+02  0.5726E+02
     -1.927  0.7272E+01  0.5974E+02
     -1.623  0.5749E+01  0.6144E+02
     -1.320  0.1210E+02  0.6438E+02
     -1.016  0.1145E+02  0.6790E+02
     -0.712  0.8459E+01  0.7032E+02
     -0.409  0.1016E+02  0.7335E+02
     -0.105  0.1311E+02  0.7662E+02
      0.199  0.6990E+01  0.7939E+02
      0.503  0.2536E+02  0.8205E+02
      0.806  0.1457E+02  0.8756E+02
      1.110  0.1378E+02  0.9194E+02
      1.414  0.7988E+01  0.9511E+02
      1.717  0.1118E+02  0.9786E+02
      2.021  0.8995E+01  0.1022E+03
      2.325  0.2460E+01  0.1038E+03
      2.628  0.0000E+00  0.1040E+03
      2.932  0.0000E+00  0.1040E+03
      3.236  0.0000E+00  0.1040E+03
      3.539  0.3071E+01  0.1043E+03
      3.843  0.8936E+01  0.1063E+03
      4.147  0.2147E+02  0.1102E+03
      4.451  0.1956E+02  0.1161E+03
      4.754  0.1187E+02  0.1197E+03
      5.058  0.1139E+02  0.1235E+03
      5.362  0.5967E+01  0.1263E+03
      5.665  0.8531E+01  0.1281E+03
      5.969  0.1081E+02  0.1314E+03
      6.273  0.9859E+01  0.1348E+03
      6.576  0.7561E+01  0.1372E+03
      6.880  0.4592E+01  0.1388E+03
      7.184  0.5749E+01  0.1404E+03
      7.488  0.5713E+01  0.1418E+03
      7.791  0.5291E+01  0.1432E+03
      8.095  0.7781E+01  0.1448E+03
      8.399  0.7562E+01  0.1470E+03
      8.702  0.8144E+01  0.1499E+03
      9.006  0.7614E+01  0.1525E+03
      9.310  0.8961E+01  0.1554E+03
      9.613  0.1348E+02  0.1586E+03
      9.917  0.1175E+02  0.1630E+03
     10.221  0.6919E+01  0.1659E+03
     10.525  0.1548E+01  0.1672E+03
     10.828  0.6713E+00  0.1676E+03
     11.132  0.7462E+00  0.1679E+03
     11.436  0.0000E+00  0.1680E+03
     11.739  0.0000E+00  0.1680E+03
     12.043  0.0000E+00  0.1680E+03
     12.347  0.0000E+00  0.1680E+03
     12.650  0.0000E+00  0.1680E+03
     12.954  0.0000E+00  0.1680E+03
     13.258  0.0000E+00  0.1680E+03
     13.561  0.0000E+00  0.1680E+03
     13.865  0.0000E+00  0.1680E+03
     14.169  0.0000E+00  0.1680E+03
     14.473  0.0000E+00  0.1680E+03
     14.776  0.0000E+00  0.1680E+03
     15.080  0.0000E+00  0.1680E+03
     15.384  0.0000E+00  0.1680E+03
