       N       E                     dE             d eps       ncg     rms          rms(c)
DAV:   1     0.671502664442E+03    0.67150E+03   -0.41256E+04  8036   0.709E+02
DAV:   2    -0.452205633702E+02   -0.71672E+03   -0.69702E+03  9856   0.229E+02
DAV:   3    -0.916970884544E+02   -0.46477E+02   -0.45715E+02  8820   0.583E+01
DAV:   4    -0.931967524711E+02   -0.14997E+01   -0.14973E+01  8708   0.114E+01
DAV:   5    -0.932232494203E+02   -0.26497E-01   -0.26487E-01  9156   0.150E+00    0.156E+02
DAV:   6    -0.875978609694E+02    0.56254E+01   -0.26555E+01  6804   0.135E+01    0.138E+02
DAV:   7    -0.122095157720E+03   -0.34497E+02   -0.12678E+02  8960   0.295E+01    0.184E+02
DAV:   8    -0.849004953506E+02    0.37195E+02   -0.85167E+01  8148   0.224E+01    0.350E+00
DAV:   9    -0.859799930307E+02   -0.10795E+01   -0.11382E+01  7644   0.658E+00    0.147E+01
DAV:  10    -0.860018412828E+02   -0.21848E-01   -0.31103E-01  9800   0.128E+00    0.104E+01
DAV:  11    -0.859968809649E+02    0.49603E-02   -0.46464E-03  8372   0.183E-01    0.895E+00
DAV:  12    -0.859726871086E+02    0.24194E-01   -0.24961E-02  8708   0.517E-01    0.330E+00
DAV:  13    -0.859684828111E+02    0.42043E-02   -0.92125E-03  8764   0.289E-01    0.129E+00
DAV:  14    -0.859681841789E+02    0.29863E-03   -0.15703E-03  8316   0.101E-01    0.772E-01
DAV:  15    -0.859675072488E+02    0.67693E-03   -0.95548E-04  9324   0.920E-02    0.496E-01
DAV:  16    -0.859672698529E+02    0.23740E-03   -0.56839E-04  7980   0.581E-02    0.367E-01
DAV:  17    -0.859672839268E+02   -0.14074E-04   -0.69460E-05  8988   0.234E-02    0.136E-01
DAV:  18    -0.859673271114E+02   -0.43185E-04   -0.40172E-05  8204   0.181E-02    0.135E-01
DAV:  19    -0.859673674022E+02   -0.40291E-04   -0.19700E-05  7448   0.113E-02    0.123E-01
DAV:  20    -0.859674079280E+02   -0.40526E-04   -0.27742E-05  8064   0.133E-02    0.101E-02
DAV:  21    -0.859674443777E+02   -0.36450E-04   -0.51991E-06  7504   0.606E-03    0.151E-02
DAV:  22    -0.859675012976E+02   -0.56920E-04   -0.21975E-06  8008   0.371E-03    0.839E-03
DAV:  23    -0.859675236912E+02   -0.22394E-04   -0.97593E-07  7728   0.231E-03    0.290E-03
DAV:  24    -0.859675369803E+02   -0.13289E-04   -0.18980E-07  8064   0.121E-03    0.220E-03
DAV:  25    -0.859675464405E+02   -0.94603E-05   -0.98164E-08  7728   0.776E-04    0.114E-03
DAV:  26    -0.859675507711E+02   -0.43306E-05   -0.27719E-08  6860   0.407E-04    0.746E-04
DAV:  27    -0.859675548537E+02   -0.40826E-05   -0.41055E-08  6440   0.417E-04    0.589E-04
DAV:  28    -0.859675561042E+02   -0.12505E-05   -0.78363E-09  5516   0.252E-04    0.560E-04
DAV:  29    -0.859675565778E+02   -0.47368E-06   -0.16277E-09  5712   0.181E-04    0.260E-04
DAV:  30    -0.859675566477E+02   -0.69884E-07   -0.31064E-10  5600   0.755E-05    0.304E-05
DAV:  31    -0.859675566659E+02   -0.18135E-07   -0.81679E-11  5824   0.447E-05    0.178E-05
DAV:  32    -0.859675566732E+02   -0.73342E-08   -0.29711E-11  5544   0.324E-05
   1 F= -.89684381E+02 E0= -.89684381E+02  d E =0.000000E+00
 Linear response reoptimize wavefunctions
DAV:   1    -0.859675566753E+02    0.37168E+01   -0.21265E-11  5824   0.285E-05
DAV:   2    -0.859675566754E+02   -0.58208E-10    0.25567E-11  5404   0.121E-05
 Linear response G [H, r] |phi>, progress :
  Direction:   1
       N       E                     dE             d eps       ncg     rms
RMM:   1    -0.506886558274E+03   -0.50689E+03   -0.59317E+03  8368   0.466E+02
RMM:   2    -0.538238290602E+03   -0.31352E+02   -0.60927E+02 13139   0.434E+01
RMM:   3    -0.541673382125E+03   -0.34351E+01   -0.53732E+01 13935   0.112E+01
RMM:   4    -0.542078137958E+03   -0.40476E+00   -0.29017E+00 15234   0.234E+00
RMM:   5    -0.542102153185E+03   -0.24015E-01   -0.29669E-01 15391   0.652E-01
RMM:   6    -0.542104803072E+03   -0.26499E-02   -0.19065E-02 16298   0.179E-01
RMM:   7    -0.542105083125E+03   -0.28005E-03   -0.27880E-03 16869   0.580E-02
RMM:   8    -0.542105072915E+03    0.10210E-04    0.18347E-04 17347   0.194E-02
RMM:   9    -0.542105060784E+03    0.12131E-04    0.46603E-04 17638   0.956E-03
RMM:  10    -0.542105107321E+03   -0.46536E-04    0.29610E-05 17758   0.652E-03
RMM:  11    -0.542105106882E+03    0.43826E-06    0.35370E-05 17626   0.588E-03
RMM:  12    -0.542105062324E+03    0.44559E-04    0.48123E-04 17594   0.570E-03
RMM:  13    -0.542105090316E+03   -0.27992E-04    0.20118E-04 17449   0.566E-03
 Linear response G [H, r] |phi>, progress :
  Direction:   2
       N       E                     dE             d eps       ncg     rms
RMM:   1    -0.489824532780E+03   -0.48982E+03   -0.61563E+03  8504   0.463E+02
RMM:   2    -0.569872736687E+03   -0.80048E+02   -0.58954E+02 12927   0.430E+01
RMM:   3    -0.573534092876E+03   -0.36614E+01   -0.51327E+01 13875   0.108E+01
RMM:   4    -0.574061566719E+03   -0.52747E+00   -0.27008E+00 15202   0.228E+00
RMM:   5    -0.574086776310E+03   -0.25210E-01   -0.21240E-01 15580   0.605E-01
RMM:   6    -0.574088991908E+03   -0.22156E-02   -0.13676E-02 16553   0.160E-01
RMM:   7    -0.574089081610E+03   -0.89702E-04   -0.17096E-03 16878   0.504E-02
RMM:   8    -0.574089069754E+03    0.11856E-04   -0.64629E-05 17409   0.176E-02
RMM:   9    -0.574089114830E+03   -0.45077E-04   -0.42048E-04 17617   0.902E-03
RMM:  10    -0.574089209626E+03   -0.94796E-04   -0.13553E-03 17841   0.664E-03
RMM:  11    -0.574089207026E+03    0.25993E-05   -0.13286E-03 17661   0.611E-03
RMM:  12    -0.574089065292E+03    0.14173E-03    0.88849E-05 17612   0.597E-03
RMM:  13    -0.574089137921E+03   -0.72629E-04   -0.63777E-04 17476   0.593E-03
 Linear response G [H, r] |phi>, progress :
  Direction:   3
       N       E                     dE             d eps       ncg     rms
RMM:   1    -0.523608256874E+03   -0.52361E+03   -0.64504E+03  8334   0.450E+02
RMM:   2    -0.562469583636E+03   -0.38861E+02   -0.54294E+02 12746   0.413E+01
RMM:   3    -0.566478433860E+03   -0.40089E+01   -0.41711E+01 13814   0.102E+01
RMM:   4    -0.566820710219E+03   -0.34228E+00   -0.22857E+00 15209   0.213E+00
RMM:   5    -0.566832841123E+03   -0.12131E-01   -0.20219E-01 15386   0.583E-01
RMM:   6    -0.566834585562E+03   -0.17444E-02   -0.19007E-02 16136   0.157E-01
RMM:   7    -0.566834739814E+03   -0.15425E-03   -0.23137E-03 16546   0.493E-02
RMM:   8    -0.566834760797E+03   -0.20983E-04   -0.25366E-04 17001   0.158E-02
RMM:   9    -0.566834762085E+03   -0.12884E-05   -0.36958E-05 17284   0.717E-03
RMM:  10    -0.566834762053E+03    0.32636E-07   -0.25905E-06 17343   0.461E-03
RMM:  11    -0.566834762115E+03   -0.62646E-07    0.41701E-07 17225   0.404E-03
RMM:  12    -0.566834762146E+03   -0.30599E-07    0.90712E-07 17058   0.387E-03
RMM:  13    -0.566834760037E+03    0.21094E-05    0.22119E-05 16885   0.382E-03
 Linear response to external field (no local field effect), progress :
  Direction:   1
       N       E                     dE             d eps       ncg     rms          rms(c)
RMM:   1    -0.100387942787E+02   -0.10039E+02   -0.58067E+01 16479   0.690E+00
RMM:   2    -0.156458907689E+02   -0.56071E+01   -0.83397E-01 13537   0.191E+00
RMM:   3    -0.156817407689E+02   -0.35850E-01   -0.63863E-02 14483   0.413E-01
RMM:   4    -0.156833620979E+02   -0.16213E-02   -0.46356E-03 15168   0.104E-01
RMM:   5    -0.156834585949E+02   -0.96497E-04   -0.36958E-04 15015   0.282E-02
RMM:   6    -0.156834650513E+02   -0.64564E-05   -0.31059E-05 14383   0.827E-03
RMM:   7    -0.156834655662E+02   -0.51486E-06   -0.23115E-06 14058   0.233E-03
RMM:   8    -0.156834655987E+02   -0.32559E-07   -0.28575E-07 13810   0.715E-04
RMM:   9    -0.156834655987E+02    0.43332E-10   -0.64657E-08 13713   0.241E-04
 Linear response to external field (no local field effect), progress :
  Direction:   2
       N       E                     dE             d eps       ncg     rms          rms(c)
RMM:   1    -0.113405284950E+02   -0.11341E+02   -0.67190E+01 16297   0.712E+00
RMM:   2    -0.156338738291E+02   -0.42933E+01   -0.84117E-01 13557   0.193E+00
RMM:   3    -0.156701659446E+02   -0.36292E-01   -0.62637E-02 14272   0.419E-01
RMM:   4    -0.156716834896E+02   -0.15175E-02   -0.40797E-03 15142   0.102E-01
RMM:   5    -0.156717640531E+02   -0.80563E-04   -0.33250E-04 14912   0.281E-02
RMM:   6    -0.156717703685E+02   -0.63154E-05   -0.27681E-05 14545   0.806E-03
RMM:   7    -0.156717708097E+02   -0.44126E-06   -0.22105E-06 14028   0.230E-03
RMM:   8    -0.156717708445E+02   -0.34758E-07   -0.25274E-07 13822   0.707E-04
RMM:   9    -0.156717708472E+02   -0.27226E-08   -0.90037E-08 13674   0.254E-04
 Linear response to external field (no local field effect), progress :
  Direction:   3
       N       E                     dE             d eps       ncg     rms          rms(c)
RMM:   1    -0.761562485165E+01   -0.76156E+01   -0.36591E+01 15990   0.661E+00
RMM:   2    -0.934623229779E+01   -0.17306E+01   -0.65330E-01 13203   0.169E+00
RMM:   3    -0.936864960223E+01   -0.22417E-01   -0.48137E-02 14216   0.384E-01
RMM:   4    -0.936965066928E+01   -0.10011E-02   -0.34299E-03 14857   0.985E-02
RMM:   5    -0.936971101483E+01   -0.60346E-04   -0.28106E-04 14718   0.275E-02
RMM:   6    -0.936971588745E+01   -0.48726E-05   -0.25001E-05 14180   0.797E-03
RMM:   7    -0.936971625502E+01   -0.36757E-06   -0.20603E-06 13911   0.227E-03
RMM:   8    -0.936971628600E+01   -0.30978E-07   -0.20053E-07 13541   0.682E-04
RMM:   9    -0.936971628858E+01   -0.25857E-08   -0.32954E-08 13299   0.237E-04
 Linear response to external field, progress :
  Direction:   1
       N       E                     dE             d eps       ncg     rms          rms(c)
RMM:   1    -0.106695190548E+02   -0.10670E+02   -0.62427E+01 39976   0.692E+00
RMM:   2    -0.156404395008E+02   -0.49709E+01   -0.82873E-01 33040   0.187E+00    0.630E+00
RMM:   3    -0.153227326117E+02    0.31771E+00   -0.35526E-01 31898   0.161E+00    0.360E+00
RMM:   4    -0.156437477137E+02   -0.32102E+00   -0.28639E-01 29999   0.161E+00    0.931E-01
RMM:   5    -0.157612762712E+02   -0.11753E+00   -0.75024E-03 31875   0.372E-01    0.953E-02
RMM:   6    -0.157692681867E+02   -0.79919E-02   -0.42683E-03 33799   0.701E-02    0.573E-02
RMM:   7    -0.157735023275E+02   -0.42341E-02    0.41540E-03 33282   0.263E-02    0.265E-02
RMM:   8    -0.157772841832E+02   -0.37819E-02   -0.23162E-03 32002   0.119E-02    0.569E-03
RMM:   9    -0.157780078967E+02   -0.72371E-03   -0.20869E-04 32210   0.496E-03    0.256E-03
RMM:  10    -0.157782829464E+02   -0.27505E-03   -0.61674E-05 31568   0.215E-03    0.107E-03
RMM:  11    -0.157783709390E+02   -0.87993E-04   -0.73341E-05 32905   0.718E-04    0.523E-04
RMM:  12    -0.157784054694E+02   -0.34530E-04   -0.23363E-05 31613   0.346E-04    0.137E-04
RMM:  13    -0.157784062601E+02   -0.79070E-06   -0.92664E-07 31871   0.144E-04    0.554E-05
RMM:  14    -0.157784044770E+02    0.17831E-05   -0.62168E-06 29800   0.910E-05    0.245E-05
RMM:  15    -0.157784032833E+02    0.11937E-05   -0.43398E-06 23047   0.731E-05    0.999E-06
 Linear response to external field, progress :
  Direction:   2
       N       E                     dE             d eps       ncg     rms          rms(c)
RMM:   1    -0.107568083075E+02   -0.10757E+02   -0.63300E+01 40068   0.693E+00
RMM:   2    -0.156390013200E+02   -0.48822E+01   -0.83832E-01 33390   0.190E+00    0.630E+00
RMM:   3    -0.153223245810E+02    0.31668E+00   -0.34951E-01 31971   0.161E+00    0.360E+00
RMM:   4    -0.156450287965E+02   -0.32270E+00   -0.29476E-01 30007   0.161E+00    0.931E-01
RMM:   5    -0.157574459527E+02   -0.11242E+00    0.16879E-02 32087   0.375E-01    0.126E-01
RMM:   6    -0.157713712498E+02   -0.13925E-01   -0.33331E-02 34323   0.725E-02    0.764E-02
RMM:   7    -0.157702420817E+02    0.11292E-02    0.88186E-03 35186   0.224E-02    0.386E-02
RMM:   8    -0.157766309163E+02   -0.63888E-02    0.12198E-03 28686   0.199E-02    0.934E-03
RMM:   9    -0.157778906190E+02   -0.12597E-02   -0.13296E-03 32457   0.513E-03    0.427E-03
RMM:  10    -0.157782186724E+02   -0.32805E-03   -0.17848E-04 31290   0.248E-03    0.167E-03
RMM:  11    -0.157783102990E+02   -0.91627E-04    0.62437E-05 31411   0.885E-04    0.125E-03
RMM:  12    -0.157784011706E+02   -0.90872E-04   -0.16454E-04 28914   0.611E-04    0.232E-04
RMM:  13    -0.157784053861E+02   -0.42155E-05   -0.28594E-05 31993   0.217E-04    0.110E-04
RMM:  14    -0.157784044688E+02    0.91722E-06   -0.29191E-06 31133   0.108E-04    0.469E-05
RMM:  15    -0.157784025196E+02    0.19493E-05   -0.82090E-06 26590   0.787E-05    0.255E-05
RMM:  16    -0.157784011399E+02    0.13797E-05   -0.25268E-06 22108   0.706E-05    0.741E-06
 Linear response to external field, progress :
  Direction:   3
       N       E                     dE             d eps       ncg     rms          rms(c)
RMM:   1    -0.761562485164E+01   -0.76156E+01   -0.36591E+01 15990   0.661E+00
RMM:   2    -0.934623229779E+01   -0.17306E+01   -0.65330E-01 13203   0.169E+00    0.574E+00
RMM:   3    -0.166852658660E+00    0.91794E+01    0.17458E+01 11568   0.344E+00    0.297E+00
RMM:   4    -0.749869201493E+00   -0.58302E+00    0.12316E+01 12355   0.110E+00    0.117E+00
RMM:   5    -0.848030122115E+00   -0.98161E-01    0.95691E+00 12909   0.479E-01    0.874E-01
RMM:   6    -0.543890152812E+00    0.30414E+00    0.10651E+01 12631   0.558E-01    0.411E-01
RMM:   7    -0.861107723868E+00   -0.31722E+00    0.72470E+00 12738   0.204E-01    0.255E-01
RMM:   8    -0.114504798272E+01   -0.28394E+00    0.42502E+00 12133   0.144E-01    0.894E-02
RMM:   9    -0.132111627253E+01   -0.17607E+00    0.24651E+00 11785   0.758E-02    0.604E-02
RMM:  10    -0.143640212955E+01   -0.11529E+00    0.13039E+00 11304   0.377E-02    0.445E-02
RMM:  11    -0.149080046403E+01   -0.54398E-01    0.75789E-01 10306   0.273E-02    0.288E-02
RMM:  12    -0.152606022342E+01   -0.35260E-01    0.41566E-01 10370   0.318E-02    0.117E-02
RMM:  13    -0.154522710100E+01   -0.19167E-01    0.22992E-01 11192   0.153E-02    0.942E-03
RMM:  14    -0.155767771638E+01   -0.12451E-01    0.11175E-01 10727   0.122E-02    0.506E-03
RMM:  15    -0.156282412957E+01   -0.51464E-02    0.61426E-02 11202   0.657E-03    0.285E-03
RMM:  16    -0.156633554870E+01   -0.35114E-02    0.26881E-02 11060   0.531E-03    0.987E-04
RMM:  17    -0.156834023088E+01   -0.20047E-02    0.66237E-03 11330   0.372E-03    0.107E-03
RMM:  18    -0.156839698559E+01   -0.56755E-04    0.58717E-03 11791   0.156E-03    0.661E-04
RMM:  19    -0.156872064636E+01   -0.32366E-03    0.25046E-03 11181   0.825E-04    0.225E-04
RMM:  20    -0.156867743599E+01    0.43210E-04    0.28312E-03 10674   0.624E-04    0.151E-04
RMM:  21    -0.156880651519E+01   -0.12908E-03    0.15150E-03 11262   0.239E-04    0.840E-05
RMM:  22    -0.156884232117E+01   -0.35806E-04    0.11311E-03 10682   0.173E-04    0.395E-05
RMM:  23    -0.156885329583E+01   -0.10975E-04    0.10190E-03  9839   0.621E-05    0.336E-05
RMM:  24    -0.156886717522E+01   -0.13879E-04    0.87751E-04  9745   0.975E-05    0.221E-05
RMM:  25    -0.156887881513E+01   -0.11640E-04    0.76451E-04  9008   0.679E-05    0.224E-05
RMM:  26    -0.156886770742E+01    0.11108E-04    0.87471E-04  8740   0.532E-05    0.838E-06
