 vasp.5.4.1 24Jun15 (build Apr 13 2016 13:07:19) complex                        
  
 executed on           IFC91_ompi date 2019.09.14  03:09:06
 running on   28 total cores
 distrk:  each k-point on   28 cores,    1 groups
 distr:  one band on NCORES_PER_BAND=   1 cores,   28 groups


--------------------------------------------------------------------------------------------------------


 INCAR:
 POTCAR:    PAW_PBE W_sv_GW 23Mar2010             
 POTCAR:    PAW_PBE Te_GW 22Mar2012               

 ----------------------------------------------------------------------------- 
|                                                                             |
|           W    W    AA    RRRRR   N    N  II  N    N   GGGG   !!!           |
|           W    W   A  A   R    R  NN   N  II  NN   N  G    G  !!!           |
|           W    W  A    A  R    R  N N  N  II  N N  N  G       !!!           |
|           W WW W  AAAAAA  RRRRR   N  N N  II  N  N N  G  GGG   !            |
|           WW  WW  A    A  R   R   N   NN  II  N   NN  G    G                |
|           W    W  A    A  R    R  N    N  II  N    N   GGGG   !!!           |
|                                                                             |
|      For optimal performance we recommend to set                            |
|        NCORE= 4 - approx SQRT( number of cores)                             |
|      NCORE specifies how many cores store one orbital (NPAR=cpu/NCORE).     |
|      This setting can  greatly improve the performance of VASP for DFT.     |
|      The default, NPAR=number of cores might be grossly inefficient         |
|      on modern multi-core architectures or massively parallel machines.     |
|      Do your own testing !!!!                                               |
|      Unfortunately you need to use the default for GW and RPA calculations. |
|      (for HF NCORE is supported but not extensively tested yet)             |
|                                                                             |
 ----------------------------------------------------------------------------- 

 POTCAR:    PAW_PBE W_sv_GW 23Mar2010             
   VRHFIN =W: 5p6s5d                                                            
   LEXCH  = PE                                                                  
   EATOM  =  1863.8917 eV,  136.9922 Ry                                         
                                                                                
   TITEL  = PAW_PBE W_sv_GW 23Mar2010                                           
   LULTRA =        F    use ultrasoft PP ?                                      
   IUNSCR =        1    unscreen: 0-lin 1-nonlin 2-no                           
   RPACOR =    1.500    partial core radius                                     
   POMASS =  183.850; ZVAL   =   14.000    mass and valenz                      
   RCORE  =    2.300    outmost cutoff radius                                   
   RWIGS  =    2.600; RWIGS  =    1.376    wigner-seitz radius (au A)           
   ENMAX  =  317.132; ENMIN  =  237.849 eV                                      
   RCLOC  =    1.609    cutoff for local pot                                    
   LCOR   =        T    correct aug charges                                     
   LPAW   =        T    paw PP                                                  
   EAUG   =  807.757                                                            
   DEXC   =    0.000                                                            
   RMAX   =    2.349    core radius for proj-oper                               
   RAUG   =    1.300    factor for augmentation sphere                          
   RDEP   =    2.382    radius for radial grids                                 
   RDEPT  =    1.832    core radius for aug-charge                              
                                                                                
   Atomic configuration                                                         
   14 entries                                                                   
     n  l   j            E        occ.                                          
     1  0  0.50    -69464.1497   2.0000                                         
     2  0  0.50    -11984.7400   2.0000                                         
     2  1  1.50    -10478.3405   6.0000                                         
     3  0  0.50     -2757.5605   2.0000                                         
     3  1  1.50     -2311.6706   6.0000                                         
     3  2  2.50     -1799.5973  10.0000                                         
     4  0  0.50      -566.1609   2.0000                                         
     4  1  1.50      -419.9482   6.0000                                         
     4  2  2.50      -234.8191  10.0000                                         
     4  3  3.50       -29.7363  14.0000                                         
     5  0  0.50       -75.5905   2.0000                                         
     5  1  1.50       -39.9756   6.0000                                         
     5  2  2.50        -2.4479   6.0000                                         
     5  3  2.50        -1.3606   0.0000                                         
   Description                                                                  
     l       E           TYP  RCUT    TYP  RCUT                                 
     0    -75.5905419     23  1.500                                             
     0    -76.9511245     23  1.500                                             
     0    108.8466080     23  1.500                                             
     1    -39.9756040     23  1.800                                             
     1     68.0291300     23  1.800                                             
     2     -2.4478587     23  2.150                                             
     2     -0.0030619     23  2.150                                             
     3      4.0817478     23  2.300                                             
  local pseudopotential read in
  partial core-charges read in
  partial kinetic energy density read in
  kinetic energy density of atom read in
  atomic valenz-charges read in
  non local Contribution for L=           0  read in
    real space projection operators read in
  non local Contribution for L=           0  read in
    real space projection operators read in
  non local Contribution for L=           0  read in
    real space projection operators read in
  non local Contribution for L=           1  read in
    real space projection operators read in
  non local Contribution for L=           1  read in
    real space projection operators read in
  non local Contribution for L=           2  read in
    real space projection operators read in
  non local Contribution for L=           2  read in
    real space projection operators read in
  non local Contribution for L=           3  read in
    real space projection operators read in
    PAW grid and wavefunctions read in
 
   number of l-projection  operators is LMAX  =           8
   number of lm-projection operators is LMMAX =          26
 
 POTCAR:    PAW_PBE Te_GW 22Mar2012               
   VRHFIN =Te: s2p4                                                             
   LEXCH  = PE                                                                  
   EATOM  =   223.2721 eV,   16.4100 Ry                                         
                                                                                
   TITEL  = PAW_PBE Te_GW 22Mar2012                                             
   LULTRA =        F    use ultrasoft PP ?                                      
   IUNSCR =        1    unscreen: 0-lin 1-nonlin 2-no                           
   RPACOR =    2.200    partial core radius                                     
   POMASS =  127.600; ZVAL   =    6.000    mass and valenz                      
   RCORE  =    2.600    outmost cutoff radius                                   
   RWIGS  =    2.900; RWIGS  =    1.535    wigner-seitz radius (au A)           
   ENMAX  =  174.982; ENMIN  =  131.236 eV                                      
   ICORE  =        3    local potential                                         
   LCOR   =        T    correct aug charges                                     
   LPAW   =        T    paw PP                                                  
   EAUG   =  368.792                                                            
   DEXC   =    0.000                                                            
   RMAX   =    2.665    core radius for proj-oper                               
   RAUG   =    1.300    factor for augmentation sphere                          
   RDEP   =    2.724    radius for radial grids                                 
   RDEPT  =    2.174    core radius for aug-charge                              
                                                                                
   Atomic configuration                                                         
   13 entries                                                                   
     n  l   j            E        occ.                                          
     1  0  0.50    -31621.2075   2.0000                                         
     2  0  0.50     -4848.7941   2.0000                                         
     2  1  1.50     -4352.1960   6.0000                                         
     3  0  0.50      -964.9612   2.0000                                         
     3  1  1.50      -803.6179   6.0000                                         
     3  2  2.50      -559.8710  10.0000                                         
     4  0  0.50      -164.3522   2.0000                                         
     4  1  1.50      -114.3756   6.0000                                         
     4  2  2.50       -41.6483  10.0000                                         
     5  0  0.50       -15.1072   2.0000                                         
     5  1  0.50        -5.9526   4.0000                                         
     5  2  1.50        -6.8029   0.0000                                         
     4  3  2.50        -6.8029   0.0000                                         
   Description                                                                  
     l       E           TYP  RCUT    TYP  RCUT                                 
     0    -15.1072389     23  2.300                                             
     0     68.0291300     23  2.300                                             
     1     -5.9526306     23  2.300                                             
     1     95.2407820     23  2.300                                             
     2      1.3605826     23  2.600                                             
     2     68.0291300     23  2.600                                             
     3     -1.3605826     23  2.300                                             
  local pseudopotential read in
  partial core-charges read in
  partial kinetic energy density read in
  kinetic energy density of atom read in
  atomic valenz-charges read in
  non local Contribution for L=           0  read in
    real space projection operators read in
  non local Contribution for L=           0  read in
    real space projection operators read in
  non local Contribution for L=           1  read in
    real space projection operators read in
  non local Contribution for L=           1  read in
    real space projection operators read in
  non local Contribution for L=           2  read in
    real space projection operators read in
  non local Contribution for L=           2  read in
    real space projection operators read in
    PAW grid and wavefunctions read in
 
   number of l-projection  operators is LMAX  =           6
   number of lm-projection operators is LMMAX =          18
 
  PAW_PBE W_sv_GW 23Mar2010             :
 energy of atom  1       EATOM=-1863.8917
 kinetic energy error for atom=    0.2291 (will be added to EATOM!!)
  PAW_PBE Te_GW 22Mar2012               :
 energy of atom  2       EATOM= -223.2721
 kinetic energy error for atom=    0.0024 (will be added to EATOM!!)
 
 
 POSCAR:  W Te                                   
  positions in cartesian coordinates
  No initial velocities read in
 exchange correlation table for  LEXCH =        8
   RHO(1)=    0.500       N(1)  =     2000
   RHO(2)=  100.500       N(2)  =     4000
 


--------------------------------------------------------------------------------------------------------


 ion  position               nearest neighbor table
   1  0.167  0.333  0.288-   5 2.74   5 2.74   5 2.74   6 2.74   6 2.74   6 2.74
   2  0.833  0.667  0.429-   7 2.74   8 2.74   7 2.74   8 2.74   7 2.74   8 2.74
   3  0.167  0.333  0.571-   9 2.74  10 2.74   9 2.74  10 2.74   9 2.74  10 2.74
   4  0.833  0.667  0.712-  12 2.74  12 2.74  12 2.74  11 2.74  11 2.74  11 2.74
   5  0.833  0.667  0.324-   1 2.74   1 2.74   1 2.74   6 3.62
   6  0.833  0.667  0.252-   1 2.74   1 2.74   1 2.74   5 3.62
   7  0.167  0.333  0.466-   2 2.74   2 2.74   2 2.74   8 3.62
   8  0.167  0.333  0.393-   2 2.74   2 2.74   2 2.74   7 3.62
   9  0.833  0.667  0.607-   3 2.74   3 2.74   3 2.74  10 3.62
  10  0.833  0.667  0.534-   3 2.74   3 2.74   3 2.74   9 3.62
  11  0.167  0.333  0.748-   4 2.74   4 2.74   4 2.74  12 3.62
  12  0.167  0.333  0.676-   4 2.74   4 2.74   4 2.74  11 3.62
 
  LATTYP: Found a hexagonal cell.
 ALAT       =     3.5500762221
 C/A-ratio  =    14.0842046402
  
  Lattice vectors:
  
 A1 = (   3.5500762221,   0.0000000000,   0.0000000000)
 A2 = (  -1.7750381110,   3.0744561937,   0.0000000000)
 A3 = (   0.0000000000,   0.0000000000,  50.0000000000)


Analysis of symmetry for initial positions (statically):
=====================================================================
 Subroutine PRICEL returns:
 Original cell was already a primitive cell.
 

 Routine SETGRP: Setting up the symmetry group for a 
 hexagonal supercell.


 Subroutine GETGRP returns: Found 12 space group operations
 (whereof  4 operations were pure point group operations)
 out of a pool of 24 trial point group operations.


The static configuration has the point symmetry C_2h.
 The point group associated with its full space group is D_3d.


Analysis of symmetry for dynamics (positions and initial velocities):
=====================================================================
 Subroutine PRICEL returns:
 Original cell was already a primitive cell.
 

 Routine SETGRP: Setting up the symmetry group for a 
 hexagonal supercell.


 Subroutine GETGRP returns: Found 12 space group operations
 (whereof  4 operations were pure point group operations)
 out of a pool of 24 trial point group operations.


The dynamic configuration has the point symmetry C_2h.
 The point group associated with its full space group is D_3d.


 Subroutine INISYM returns: Found 12 space group operations
 (whereof  4 operations are pure point group operations),
 and found     1 'primitive' translations

 
 
 KPOINTS: KPOINTS created by Atomic Simulation Env

Automatic generation of k-mesh.
Space group operators:
 irot       det(A)        alpha          n_x          n_y          n_z        tau_x        tau_y        tau_z
    1     1.000000     0.000001     1.000000     0.000000     0.000000     0.000000     0.000000     0.000000
    2    -1.000000     0.000001     1.000000     0.000000     0.000000     0.000000     0.000000     0.000000
    3     1.000000   179.999999     1.000000     0.000000     0.000000     0.000000     0.000000     0.000000
    4    -1.000000   179.999999     1.000000     0.000000     0.000000     0.000000     0.000000     0.000000
    5     1.000000   120.000000     0.000000     0.000000    -1.000000     0.500000     0.500000     0.000000
    6    -1.000000   120.000000     0.000000     0.000000    -1.000000     0.500000     0.500000     0.000000
    7     1.000000   120.000000     0.000000     0.000000     1.000000     0.000000     0.500000     0.000000
    8    -1.000000   120.000000     0.000000     0.000000     1.000000     0.000000     0.500000     0.000000
    9     1.000000   180.000000     0.500000    -0.866025     0.000000     0.000000     0.500000     0.000000
   10    -1.000000   180.000000     0.500000    -0.866025     0.000000     0.000000     0.500000     0.000000
   11     1.000000   180.000000    -0.500000    -0.866025     0.000000     0.500000     0.500000     0.000000
   12    -1.000000   180.000000    -0.500000    -0.866025     0.000000     0.500000     0.500000     0.000000
 
 Subroutine IBZKPT returns following result:
 ===========================================
 
 Found     37 irreducible k-points:
 
 Following reciprocal coordinates:
            Coordinates               Weight
  0.000000  0.000000  0.000000      1.000000
  0.055556  0.000000  0.000000      6.000000
  0.111111  0.000000  0.000000      6.000000
  0.166667  0.000000  0.000000      6.000000
  0.222222  0.000000  0.000000      6.000000
  0.277778  0.000000  0.000000      6.000000
  0.333333  0.000000  0.000000      6.000000
  0.388889  0.000000  0.000000      6.000000
  0.444444  0.000000  0.000000      6.000000
  0.500000  0.000000  0.000000      3.000000
  0.055556  0.055556  0.000000      6.000000
  0.111111  0.055556  0.000000     12.000000
  0.166667  0.055556  0.000000     12.000000
  0.222222  0.055556  0.000000     12.000000
  0.277778  0.055556  0.000000     12.000000
  0.333333  0.055556  0.000000     12.000000
  0.388889  0.055556  0.000000     12.000000
  0.444444  0.055556  0.000000     12.000000
  0.111111  0.111111  0.000000      6.000000
  0.166667  0.111111  0.000000     12.000000
  0.222222  0.111111  0.000000     12.000000
  0.277778  0.111111  0.000000     12.000000
  0.333333  0.111111  0.000000     12.000000
  0.388889  0.111111  0.000000     12.000000
  0.444444  0.111111  0.000000      6.000000
  0.166667  0.166667  0.000000      6.000000
  0.222222  0.166667  0.000000     12.000000
  0.277778  0.166667  0.000000     12.000000
  0.333333  0.166667  0.000000     12.000000
  0.388889  0.166667  0.000000     12.000000
  0.222222  0.222222  0.000000      6.000000
  0.277778  0.222222  0.000000     12.000000
  0.333333  0.222222  0.000000     12.000000
  0.388889  0.222222  0.000000      6.000000
  0.277778  0.277778  0.000000      6.000000
  0.333333  0.277778  0.000000     12.000000
  0.333333  0.333333  0.000000      2.000000
 
 Following cartesian coordinates:
            Coordinates               Weight
  0.000000  0.000000  0.000000      1.000000
  0.015649  0.009035  0.000000      6.000000
  0.031298  0.018070  0.000000      6.000000
  0.046947  0.027105  0.000000      6.000000
  0.062596  0.036140  0.000000      6.000000
  0.078246  0.045175  0.000000      6.000000
  0.093895  0.054210  0.000000      6.000000
  0.109544  0.063245  0.000000      6.000000
  0.125193  0.072280  0.000000      6.000000
  0.140842  0.081315  0.000000      3.000000
  0.015649  0.027105  0.000000      6.000000
  0.031298  0.036140  0.000000     12.000000
  0.046947  0.045175  0.000000     12.000000
  0.062596  0.054210  0.000000     12.000000
  0.078246  0.063245  0.000000     12.000000
  0.093895  0.072280  0.000000     12.000000
  0.109544  0.081315  0.000000     12.000000
  0.125193  0.090350  0.000000     12.000000
  0.031298  0.054210  0.000000      6.000000
  0.046947  0.063245  0.000000     12.000000
  0.062596  0.072280  0.000000     12.000000
  0.078246  0.081315  0.000000     12.000000
  0.093895  0.090350  0.000000     12.000000
  0.109544  0.099385  0.000000     12.000000
  0.125193  0.108420  0.000000      6.000000
  0.046947  0.081315  0.000000      6.000000
  0.062596  0.090350  0.000000     12.000000
  0.078246  0.099385  0.000000     12.000000
  0.093895  0.108420  0.000000     12.000000
  0.109544  0.117455  0.000000     12.000000
  0.062596  0.108420  0.000000      6.000000
  0.078246  0.117455  0.000000     12.000000
  0.093895  0.126490  0.000000     12.000000
  0.109544  0.135525  0.000000      6.000000
  0.078246  0.135525  0.000000      6.000000
  0.093895  0.144560  0.000000     12.000000
  0.093895  0.162630  0.000000      2.000000
 
 TETIRR: Found    169 inequivalent tetrahedra from     1944
 
 Subroutine IBZKPT_HF returns following result:
 ==============================================
 
 Found    324 k-points in 1st BZ
 the following    324 k-points will be used (e.g. in the exchange kernel)
 Following reciprocal coordinates:   # in IRBZ
  0.000000  0.000000  0.000000    0.00308642   1 t-inv F
  0.055556  0.000000  0.000000    0.00308642   2 t-inv F
  0.111111  0.000000  0.000000    0.00308642   3 t-inv F
  0.166667  0.000000  0.000000    0.00308642   4 t-inv F
  0.222222  0.000000  0.000000    0.00308642   5 t-inv F
  0.277778  0.000000  0.000000    0.00308642   6 t-inv F
  0.333333  0.000000  0.000000    0.00308642   7 t-inv F
  0.388889  0.000000  0.000000    0.00308642   8 t-inv F
  0.444444  0.000000  0.000000    0.00308642   9 t-inv F
  0.500000  0.000000  0.000000    0.00308642  10 t-inv F
  0.055556  0.055556  0.000000    0.00308642  11 t-inv F
  0.111111  0.055556  0.000000    0.00308642  12 t-inv F
  0.166667  0.055556  0.000000    0.00308642  13 t-inv F
  0.222222  0.055556  0.000000    0.00308642  14 t-inv F
  0.277778  0.055556  0.000000    0.00308642  15 t-inv F
  0.333333  0.055556  0.000000    0.00308642  16 t-inv F
  0.388889  0.055556  0.000000    0.00308642  17 t-inv F
  0.444444  0.055556  0.000000    0.00308642  18 t-inv F
  0.111111  0.111111  0.000000    0.00308642  19 t-inv F
  0.166667  0.111111  0.000000    0.00308642  20 t-inv F
  0.222222  0.111111  0.000000    0.00308642  21 t-inv F
  0.277778  0.111111  0.000000    0.00308642  22 t-inv F
  0.333333  0.111111  0.000000    0.00308642  23 t-inv F
  0.388889  0.111111  0.000000    0.00308642  24 t-inv F
  0.444444  0.111111  0.000000    0.00308642  25 t-inv F
  0.166667  0.166667  0.000000    0.00308642  26 t-inv F
  0.222222  0.166667  0.000000    0.00308642  27 t-inv F
  0.277778  0.166667  0.000000    0.00308642  28 t-inv F
  0.333333  0.166667  0.000000    0.00308642  29 t-inv F
  0.388889  0.166667  0.000000    0.00308642  30 t-inv F
  0.222222  0.222222  0.000000    0.00308642  31 t-inv F
  0.277778  0.222222  0.000000    0.00308642  32 t-inv F
  0.333333  0.222222  0.000000    0.00308642  33 t-inv F
  0.388889  0.222222  0.000000    0.00308642  34 t-inv F
  0.277778  0.277778  0.000000    0.00308642  35 t-inv F
  0.333333  0.277778  0.000000    0.00308642  36 t-inv F
  0.333333  0.333333  0.000000    0.00308642  37 t-inv F
 -0.055556 -0.000000 -0.000000    0.00308642   2 t-inv F
  0.055556 -0.055556 -0.000000    0.00308642   2 t-inv F
 -0.055556  0.055556  0.000000    0.00308642   2 t-inv F
  0.000000 -0.055556  0.000000    0.00308642   2 t-inv F
 -0.000000  0.055556 -0.000000    0.00308642   2 t-inv F
 -0.111111 -0.000000 -0.000000    0.00308642   3 t-inv F
  0.111111 -0.111111 -0.000000    0.00308642   3 t-inv F
 -0.111111  0.111111  0.000000    0.00308642   3 t-inv F
  0.000000 -0.111111  0.000000    0.00308642   3 t-inv F
 -0.000000  0.111111 -0.000000    0.00308642   3 t-inv F
 -0.166667 -0.000000 -0.000000    0.00308642   4 t-inv F
  0.166667 -0.166667 -0.000000    0.00308642   4 t-inv F
 -0.166667  0.166667  0.000000    0.00308642   4 t-inv F
  0.000000 -0.166667  0.000000    0.00308642   4 t-inv F
 -0.000000  0.166667 -0.000000    0.00308642   4 t-inv F
 -0.222222 -0.000000 -0.000000    0.00308642   5 t-inv F
  0.222222 -0.222222 -0.000000    0.00308642   5 t-inv F
 -0.222222  0.222222  0.000000    0.00308642   5 t-inv F
  0.000000 -0.222222  0.000000    0.00308642   5 t-inv F
 -0.000000  0.222222 -0.000000    0.00308642   5 t-inv F
 -0.277778 -0.000000 -0.000000    0.00308642   6 t-inv F
  0.277778 -0.277778 -0.000000    0.00308642   6 t-inv F
 -0.277778  0.277778  0.000000    0.00308642   6 t-inv F
  0.000000 -0.277778  0.000000    0.00308642   6 t-inv F
 -0.000000  0.277778 -0.000000    0.00308642   6 t-inv F
 -0.333333 -0.000000 -0.000000    0.00308642   7 t-inv F
  0.333333 -0.333333 -0.000000    0.00308642   7 t-inv F
 -0.333333  0.333333  0.000000    0.00308642   7 t-inv F
  0.000000 -0.333333  0.000000    0.00308642   7 t-inv F
 -0.000000  0.333333 -0.000000    0.00308642   7 t-inv F
 -0.388889 -0.000000 -0.000000    0.00308642   8 t-inv F
  0.388889 -0.388889 -0.000000    0.00308642   8 t-inv F
 -0.388889  0.388889  0.000000    0.00308642   8 t-inv F
  0.000000 -0.388889  0.000000    0.00308642   8 t-inv F
 -0.000000  0.388889 -0.000000    0.00308642   8 t-inv F
 -0.444444 -0.000000 -0.000000    0.00308642   9 t-inv F
  0.444444 -0.444444 -0.000000    0.00308642   9 t-inv F
 -0.444444  0.444444  0.000000    0.00308642   9 t-inv F
  0.000000 -0.444444  0.000000    0.00308642   9 t-inv F
 -0.000000  0.444444 -0.000000    0.00308642   9 t-inv F
  0.500000 -0.500000 -0.000000    0.00308642  10 t-inv F
  0.000000 -0.500000  0.000000    0.00308642  10 t-inv F
 -0.055556 -0.055556 -0.000000    0.00308642  11 t-inv F
  0.055556 -0.111111 -0.000000    0.00308642  11 t-inv F
 -0.055556  0.111111  0.000000    0.00308642  11 t-inv F
 -0.111111  0.055556  0.000000    0.00308642  11 t-inv F
  0.111111 -0.055556 -0.000000    0.00308642  11 t-inv F
 -0.111111 -0.055556 -0.000000    0.00308642  12 t-inv F
  0.111111 -0.166667 -0.000000    0.00308642  12 t-inv F
 -0.111111  0.166667  0.000000    0.00308642  12 t-inv F
 -0.166667  0.111111  0.000000    0.00308642  12 t-inv F
  0.166667 -0.111111 -0.000000    0.00308642  12 t-inv F
  0.055556 -0.166667  0.000000    0.00308642  12 t-inv F
 -0.055556  0.166667 -0.000000    0.00308642  12 t-inv F
 -0.166667  0.055556 -0.000000    0.00308642  12 t-inv F
  0.166667 -0.055556  0.000000    0.00308642  12 t-inv F
  0.055556  0.111111 -0.000000    0.00308642  12 t-inv F
 -0.055556 -0.111111  0.000000    0.00308642  12 t-inv F
 -0.166667 -0.055556 -0.000000    0.00308642  13 t-inv F
  0.166667 -0.222222 -0.000000    0.00308642  13 t-inv F
 -0.166667  0.222222  0.000000    0.00308642  13 t-inv F
 -0.222222  0.166667  0.000000    0.00308642  13 t-inv F
  0.222222 -0.166667 -0.000000    0.00308642  13 t-inv F
  0.055556 -0.222222  0.000000    0.00308642  13 t-inv F
 -0.055556  0.222222 -0.000000    0.00308642  13 t-inv F
 -0.222222  0.055556 -0.000000    0.00308642  13 t-inv F
  0.222222 -0.055556  0.000000    0.00308642  13 t-inv F
  0.055556  0.166667 -0.000000    0.00308642  13 t-inv F
 -0.055556 -0.166667  0.000000    0.00308642  13 t-inv F
 -0.222222 -0.055556 -0.000000    0.00308642  14 t-inv F
  0.222222 -0.277778 -0.000000    0.00308642  14 t-inv F
 -0.222222  0.277778  0.000000    0.00308642  14 t-inv F
 -0.277778  0.222222  0.000000    0.00308642  14 t-inv F
  0.277778 -0.222222 -0.000000    0.00308642  14 t-inv F
  0.055556 -0.277778  0.000000    0.00308642  14 t-inv F
 -0.055556  0.277778 -0.000000    0.00308642  14 t-inv F
 -0.277778  0.055556 -0.000000    0.00308642  14 t-inv F
  0.277778 -0.055556  0.000000    0.00308642  14 t-inv F
  0.055556  0.222222 -0.000000    0.00308642  14 t-inv F
 -0.055556 -0.222222  0.000000    0.00308642  14 t-inv F
 -0.277778 -0.055556 -0.000000    0.00308642  15 t-inv F
  0.277778 -0.333333 -0.000000    0.00308642  15 t-inv F
 -0.277778  0.333333  0.000000    0.00308642  15 t-inv F
 -0.333333  0.277778  0.000000    0.00308642  15 t-inv F
  0.333333 -0.277778 -0.000000    0.00308642  15 t-inv F
  0.055556 -0.333333  0.000000    0.00308642  15 t-inv F
 -0.055556  0.333333 -0.000000    0.00308642  15 t-inv F
 -0.333333  0.055556 -0.000000    0.00308642  15 t-inv F
  0.333333 -0.055556  0.000000    0.00308642  15 t-inv F
  0.055556  0.277778 -0.000000    0.00308642  15 t-inv F
 -0.055556 -0.277778  0.000000    0.00308642  15 t-inv F
 -0.333333 -0.055556 -0.000000    0.00308642  16 t-inv F
  0.333333 -0.388889 -0.000000    0.00308642  16 t-inv F
 -0.333333  0.388889  0.000000    0.00308642  16 t-inv F
 -0.388889  0.333333  0.000000    0.00308642  16 t-inv F
  0.388889 -0.333333 -0.000000    0.00308642  16 t-inv F
  0.055556 -0.388889  0.000000    0.00308642  16 t-inv F
 -0.055556  0.388889 -0.000000    0.00308642  16 t-inv F
 -0.388889  0.055556 -0.000000    0.00308642  16 t-inv F
  0.388889 -0.055556  0.000000    0.00308642  16 t-inv F
  0.055556  0.333333 -0.000000    0.00308642  16 t-inv F
 -0.055556 -0.333333  0.000000    0.00308642  16 t-inv F
 -0.388889 -0.055556 -0.000000    0.00308642  17 t-inv F
  0.388889 -0.444444 -0.000000    0.00308642  17 t-inv F
 -0.388889  0.444444  0.000000    0.00308642  17 t-inv F
 -0.444444  0.388889  0.000000    0.00308642  17 t-inv F
  0.444444 -0.388889 -0.000000    0.00308642  17 t-inv F
  0.055556 -0.444444  0.000000    0.00308642  17 t-inv F
 -0.055556  0.444444 -0.000000    0.00308642  17 t-inv F
 -0.444444  0.055556 -0.000000    0.00308642  17 t-inv F
  0.444444 -0.055556  0.000000    0.00308642  17 t-inv F
  0.055556  0.388889 -0.000000    0.00308642  17 t-inv F
 -0.055556 -0.388889  0.000000    0.00308642  17 t-inv F
 -0.444444 -0.055556 -0.000000    0.00308642  18 t-inv F
  0.444444 -0.500000 -0.000000    0.00308642  18 t-inv F
 -0.444444  0.500000  0.000000    0.00308642  18 t-inv F
 -0.500000  0.444444  0.000000    0.00308642  18 t-inv F
  0.500000 -0.444444 -0.000000    0.00308642  18 t-inv F
  0.055556 -0.500000  0.000000    0.00308642  18 t-inv F
 -0.055556  0.500000 -0.000000    0.00308642  18 t-inv F
 -0.500000  0.055556 -0.000000    0.00308642  18 t-inv F
  0.500000 -0.055556  0.000000    0.00308642  18 t-inv F
  0.055556  0.444444 -0.000000    0.00308642  18 t-inv F
 -0.055556 -0.444444  0.000000    0.00308642  18 t-inv F
 -0.111111 -0.111111 -0.000000    0.00308642  19 t-inv F
  0.111111 -0.222222 -0.000000    0.00308642  19 t-inv F
 -0.111111  0.222222  0.000000    0.00308642  19 t-inv F
 -0.222222  0.111111  0.000000    0.00308642  19 t-inv F
  0.222222 -0.111111 -0.000000    0.00308642  19 t-inv F
 -0.166667 -0.111111 -0.000000    0.00308642  20 t-inv F
  0.166667 -0.277778 -0.000000    0.00308642  20 t-inv F
 -0.166667  0.277778  0.000000    0.00308642  20 t-inv F
 -0.277778  0.166667  0.000000    0.00308642  20 t-inv F
  0.277778 -0.166667 -0.000000    0.00308642  20 t-inv F
  0.111111 -0.277778  0.000000    0.00308642  20 t-inv F
 -0.111111  0.277778 -0.000000    0.00308642  20 t-inv F
 -0.277778  0.111111 -0.000000    0.00308642  20 t-inv F
  0.277778 -0.111111  0.000000    0.00308642  20 t-inv F
  0.111111  0.166667 -0.000000    0.00308642  20 t-inv F
 -0.111111 -0.166667  0.000000    0.00308642  20 t-inv F
 -0.222222 -0.111111 -0.000000    0.00308642  21 t-inv F
  0.222222 -0.333333 -0.000000    0.00308642  21 t-inv F
 -0.222222  0.333333  0.000000    0.00308642  21 t-inv F
 -0.333333  0.222222  0.000000    0.00308642  21 t-inv F
  0.333333 -0.222222 -0.000000    0.00308642  21 t-inv F
  0.111111 -0.333333  0.000000    0.00308642  21 t-inv F
 -0.111111  0.333333 -0.000000    0.00308642  21 t-inv F
 -0.333333  0.111111 -0.000000    0.00308642  21 t-inv F
  0.333333 -0.111111  0.000000    0.00308642  21 t-inv F
  0.111111  0.222222 -0.000000    0.00308642  21 t-inv F
 -0.111111 -0.222222  0.000000    0.00308642  21 t-inv F
 -0.277778 -0.111111 -0.000000    0.00308642  22 t-inv F
  0.277778 -0.388889 -0.000000    0.00308642  22 t-inv F
 -0.277778  0.388889  0.000000    0.00308642  22 t-inv F
 -0.388889  0.277778  0.000000    0.00308642  22 t-inv F
  0.388889 -0.277778 -0.000000    0.00308642  22 t-inv F
  0.111111 -0.388889  0.000000    0.00308642  22 t-inv F
 -0.111111  0.388889 -0.000000    0.00308642  22 t-inv F
 -0.388889  0.111111 -0.000000    0.00308642  22 t-inv F
  0.388889 -0.111111  0.000000    0.00308642  22 t-inv F
  0.111111  0.277778 -0.000000    0.00308642  22 t-inv F
 -0.111111 -0.277778  0.000000    0.00308642  22 t-inv F
 -0.333333 -0.111111 -0.000000    0.00308642  23 t-inv F
  0.333333 -0.444444 -0.000000    0.00308642  23 t-inv F
 -0.333333  0.444444  0.000000    0.00308642  23 t-inv F
 -0.444444  0.333333  0.000000    0.00308642  23 t-inv F
  0.444444 -0.333333 -0.000000    0.00308642  23 t-inv F
  0.111111 -0.444444  0.000000    0.00308642  23 t-inv F
 -0.111111  0.444444 -0.000000    0.00308642  23 t-inv F
 -0.444444  0.111111 -0.000000    0.00308642  23 t-inv F
  0.444444 -0.111111  0.000000    0.00308642  23 t-inv F
  0.111111  0.333333 -0.000000    0.00308642  23 t-inv F
 -0.111111 -0.333333  0.000000    0.00308642  23 t-inv F
 -0.388889 -0.111111 -0.000000    0.00308642  24 t-inv F
  0.388889 -0.500000 -0.000000    0.00308642  24 t-inv F
 -0.388889  0.500000  0.000000    0.00308642  24 t-inv F
 -0.500000  0.388889  0.000000    0.00308642  24 t-inv F
  0.500000 -0.388889 -0.000000    0.00308642  24 t-inv F
  0.111111 -0.500000  0.000000    0.00308642  24 t-inv F
 -0.111111  0.500000 -0.000000    0.00308642  24 t-inv F
 -0.500000  0.111111 -0.000000    0.00308642  24 t-inv F
  0.500000 -0.111111  0.000000    0.00308642  24 t-inv F
  0.111111  0.388889 -0.000000    0.00308642  24 t-inv F
 -0.111111 -0.388889  0.000000    0.00308642  24 t-inv F
 -0.444444 -0.111111 -0.000000    0.00308642  25 t-inv F
  0.444444 -0.555556 -0.000000    0.00308642  25 t-inv F
 -0.444444  0.555556  0.000000    0.00308642  25 t-inv F
  0.111111 -0.555556  0.000000    0.00308642  25 t-inv F
 -0.111111  0.555556 -0.000000    0.00308642  25 t-inv F
 -0.166667 -0.166667 -0.000000    0.00308642  26 t-inv F
  0.166667 -0.333333 -0.000000    0.00308642  26 t-inv F
 -0.166667  0.333333  0.000000    0.00308642  26 t-inv F
 -0.333333  0.166667  0.000000    0.00308642  26 t-inv F
  0.333333 -0.166667 -0.000000    0.00308642  26 t-inv F
 -0.222222 -0.166667 -0.000000    0.00308642  27 t-inv F
  0.222222 -0.388889 -0.000000    0.00308642  27 t-inv F
 -0.222222  0.388889  0.000000    0.00308642  27 t-inv F
 -0.388889  0.222222  0.000000    0.00308642  27 t-inv F
  0.388889 -0.222222 -0.000000    0.00308642  27 t-inv F
  0.166667 -0.388889  0.000000    0.00308642  27 t-inv F
 -0.166667  0.388889 -0.000000    0.00308642  27 t-inv F
 -0.388889  0.166667 -0.000000    0.00308642  27 t-inv F
  0.388889 -0.166667  0.000000    0.00308642  27 t-inv F
  0.166667  0.222222 -0.000000    0.00308642  27 t-inv F
 -0.166667 -0.222222  0.000000    0.00308642  27 t-inv F
 -0.277778 -0.166667 -0.000000    0.00308642  28 t-inv F
  0.277778 -0.444444 -0.000000    0.00308642  28 t-inv F
 -0.277778  0.444444  0.000000    0.00308642  28 t-inv F
 -0.444444  0.277778  0.000000    0.00308642  28 t-inv F
  0.444444 -0.277778 -0.000000    0.00308642  28 t-inv F
  0.166667 -0.444444  0.000000    0.00308642  28 t-inv F
 -0.166667  0.444444 -0.000000    0.00308642  28 t-inv F
 -0.444444  0.166667 -0.000000    0.00308642  28 t-inv F
  0.444444 -0.166667  0.000000    0.00308642  28 t-inv F
  0.166667  0.277778 -0.000000    0.00308642  28 t-inv F
 -0.166667 -0.277778  0.000000    0.00308642  28 t-inv F
 -0.333333 -0.166667 -0.000000    0.00308642  29 t-inv F
  0.333333 -0.500000 -0.000000    0.00308642  29 t-inv F
 -0.333333  0.500000  0.000000    0.00308642  29 t-inv F
 -0.500000  0.333333  0.000000    0.00308642  29 t-inv F
  0.500000 -0.333333 -0.000000    0.00308642  29 t-inv F
  0.166667 -0.500000  0.000000    0.00308642  29 t-inv F
 -0.166667  0.500000 -0.000000    0.00308642  29 t-inv F
 -0.500000  0.166667 -0.000000    0.00308642  29 t-inv F
  0.500000 -0.166667  0.000000    0.00308642  29 t-inv F
  0.166667  0.333333 -0.000000    0.00308642  29 t-inv F
 -0.166667 -0.333333  0.000000    0.00308642  29 t-inv F
 -0.388889 -0.166667 -0.000000    0.00308642  30 t-inv F
  0.388889 -0.555556 -0.000000    0.00308642  30 t-inv F
 -0.388889  0.555556  0.000000    0.00308642  30 t-inv F
 -0.555556  0.388889  0.000000    0.00308642  30 t-inv F
  0.555556 -0.388889 -0.000000    0.00308642  30 t-inv F
  0.166667 -0.555556  0.000000    0.00308642  30 t-inv F
 -0.166667  0.555556 -0.000000    0.00308642  30 t-inv F
 -0.555556  0.166667 -0.000000    0.00308642  30 t-inv F
  0.555556 -0.166667  0.000000    0.00308642  30 t-inv F
  0.166667  0.388889 -0.000000    0.00308642  30 t-inv F
 -0.166667 -0.388889  0.000000    0.00308642  30 t-inv F
 -0.222222 -0.222222 -0.000000    0.00308642  31 t-inv F
  0.222222 -0.444444 -0.000000    0.00308642  31 t-inv F
 -0.222222  0.444444  0.000000    0.00308642  31 t-inv F
 -0.444444  0.222222  0.000000    0.00308642  31 t-inv F
  0.444444 -0.222222 -0.000000    0.00308642  31 t-inv F
 -0.277778 -0.222222 -0.000000    0.00308642  32 t-inv F
  0.277778 -0.500000 -0.000000    0.00308642  32 t-inv F
 -0.277778  0.500000  0.000000    0.00308642  32 t-inv F
 -0.500000  0.277778  0.000000    0.00308642  32 t-inv F
  0.500000 -0.277778 -0.000000    0.00308642  32 t-inv F
  0.222222 -0.500000  0.000000    0.00308642  32 t-inv F
 -0.222222  0.500000 -0.000000    0.00308642  32 t-inv F
 -0.500000  0.222222 -0.000000    0.00308642  32 t-inv F
  0.500000 -0.222222  0.000000    0.00308642  32 t-inv F
  0.222222  0.277778 -0.000000    0.00308642  32 t-inv F
 -0.222222 -0.277778  0.000000    0.00308642  32 t-inv F
 -0.333333 -0.222222 -0.000000    0.00308642  33 t-inv F
  0.333333 -0.555556 -0.000000    0.00308642  33 t-inv F
 -0.333333  0.555556  0.000000    0.00308642  33 t-inv F
 -0.555556  0.333333  0.000000    0.00308642  33 t-inv F
  0.555556 -0.333333 -0.000000    0.00308642  33 t-inv F
  0.222222 -0.555556  0.000000    0.00308642  33 t-inv F
 -0.222222  0.555556 -0.000000    0.00308642  33 t-inv F
 -0.555556  0.222222 -0.000000    0.00308642  33 t-inv F
  0.555556 -0.222222  0.000000    0.00308642  33 t-inv F
  0.222222  0.333333 -0.000000    0.00308642  33 t-inv F
 -0.222222 -0.333333  0.000000    0.00308642  33 t-inv F
 -0.388889 -0.222222 -0.000000    0.00308642  34 t-inv F
  0.388889 -0.611111 -0.000000    0.00308642  34 t-inv F
 -0.388889  0.611111  0.000000    0.00308642  34 t-inv F
  0.222222 -0.611111  0.000000    0.00308642  34 t-inv F
 -0.222222  0.611111 -0.000000    0.00308642  34 t-inv F
 -0.277778 -0.277778 -0.000000    0.00308642  35 t-inv F
  0.277778 -0.555556 -0.000000    0.00308642  35 t-inv F
 -0.277778  0.555556  0.000000    0.00308642  35 t-inv F
 -0.555556  0.277778  0.000000    0.00308642  35 t-inv F
  0.555556 -0.277778 -0.000000    0.00308642  35 t-inv F
 -0.333333 -0.277778 -0.000000    0.00308642  36 t-inv F
  0.333333 -0.611111 -0.000000    0.00308642  36 t-inv F
 -0.333333  0.611111  0.000000    0.00308642  36 t-inv F
 -0.611111  0.333333  0.000000    0.00308642  36 t-inv F
  0.611111 -0.333333 -0.000000    0.00308642  36 t-inv F
  0.277778 -0.611111  0.000000    0.00308642  36 t-inv F
 -0.277778  0.611111 -0.000000    0.00308642  36 t-inv F
 -0.611111  0.277778 -0.000000    0.00308642  36 t-inv F
  0.611111 -0.277778  0.000000    0.00308642  36 t-inv F
  0.277778  0.333333 -0.000000    0.00308642  36 t-inv F
 -0.277778 -0.333333  0.000000    0.00308642  36 t-inv F
 -0.333333 -0.333333 -0.000000    0.00308642  37 t-inv F


--------------------------------------------------------------------------------------------------------




 Dimension of arrays:
   k-points           NKPTS =     37   k-points in BZ     NKDIM =     37   number of bands    NBANDS=     84
   number of dos      NEDOS =    301   number of ions     NIONS =     12
   non local maximal  LDIM  =      8   non local SUM 2l+1 LMDIM =     26
   total plane-waves  NPLWV = 169344
   max r-space proj   IRMAX =      1   max aug-charges    IRDMAX=  18246
   dimension x,y,z NGX =    24 NGY =   24 NGZ =  294
   dimension x,y,z NGXF=    48 NGYF=   48 NGZF=  588
   support grid    NGXF=    48 NGYF=   48 NGZF=  588
   ions per type =               4   8
 NGX,Y,Z   is equivalent  to a cutoff of  11.24, 11.24,  9.78 a.u.
 NGXF,Y,Z  is equivalent  to a cutoff of  22.48, 22.48, 19.55 a.u.


 I would recommend the setting:
   dimension x,y,z NGX =    21 NGY =   21 NGZ =  290
 SYSTEM =  unknown system                          
 POSCAR =   W Te                                   

 Startparameter for this run:
   NWRITE =      2    write-flag & timer
   PREC   = accura    normal or accurate (medium, high low for compatibility)
   ISTART =      0    job   : 0-new  1-cont  2-samecut
   ICHARG =      2    charge: 1-file 2-atom 10-const
   ISPIN  =      1    spin polarized calculation?
   LNONCOLLINEAR =      F non collinear calculations
   LSORBIT =      F    spin-orbit coupling
   INIWAV =      1    electr: 0-lowe 1-rand  2-diag
   LASPH  =      F    aspherical Exc in radial PAW
   METAGGA=      F    non-selfconsistent MetaGGA calc.

 Electronic Relaxation 1
   ENCUT  =  317.1 eV  23.31 Ry    4.83 a.u.   5.15  5.15 72.60*2*pi/ulx,y,z
   ENINI  =  317.1     initial cutoff
   ENAUG  =  807.8 eV  augmentation charge cutoff
   NELM   =     60;   NELMIN=  5; NELMDL= -5     # of ELM steps 
   EDIFF  = 0.1E-07   stopping-criterion for ELM
   LREAL  =      F    real-space projection
   NLSPLINE    = F    spline interpolate recip. space projectors
   LCOMPAT=      F    compatible to vasp.4.4
   GGA_COMPAT  = T    GGA compatible to vasp.4.4-vasp.4.6
   LMAXPAW     = -100 max onsite density
   LMAXMIX     =    2 max onsite mixed and CHGCAR
   VOSKOWN=      0    Vosko Wilk Nusair interpolation
   ROPT   =    0.00000   0.00000
 Ionic relaxation
   EDIFFG = 0.1E-06   stopping-criterion for IOM
   NSW    =      0    number of steps for IOM
   NBLOCK =      1;   KBLOCK =      1    inner block; outer block 
   IBRION =     -1    ionic relax: 0-MD 1-quasi-New 2-CG
   NFREE  =      0    steps in history (QN), initial steepest desc. (CG)
   ISIF   =      2    stress and relaxation
   IWAVPR =     10    prediction:  0-non 1-charg 2-wave 3-comb
   ISYM   =      2    0-nonsym 1-usesym 2-fastsym
   LCORR  =      T    Harris-Foulkes like correction to forces

   POTIM  = 0.5000    time-step for ionic-motion
   TEIN   =    0.0    initial temperature
   TEBEG  =    0.0;   TEEND  =   0.0 temperature during run
   SMASS  =  -3.00    Nose mass-parameter (am)
   estimated Nose-frequenzy (Omega)   =  0.10E-29 period in steps =****** mass=  -0.288E-27a.u.
   SCALEE = 1.0000    scale energy and forces
   NPACO  =    256;   APACO  = 16.0  distance and # of slots for P.C.
   PSTRESS=    0.0 pullay stress

  Mass of Ions in am
   POMASS = 183.85127.60
  Ionic Valenz
   ZVAL   =  14.00  6.00
  Atomic Wigner-Seitz radii
   RWIGS  =  -1.00 -1.00
  virtual crystal weights 
   VCA    =   1.00  1.00
   NELECT =     104.0000    total number of electrons
   NUPDOWN=      -1.0000    fix difference up-down

 DOS related values:
   EMIN   =  10.00;   EMAX   =-10.00  energy-range for DOS
   EFERMI =   0.00
   ISMEAR =    -5;   SIGMA  =   0.01  broadening in eV -4-tet -1-fermi 0-gaus

 Electronic relaxation 2 (details)
   IALGO  =     38    algorithm
   LDIAG  =      T    sub-space diagonalisation (order eigenvalues)
   LSUBROT=      F    optimize rotation matrix (better conditioning)
   TURBO    =      0    0=normal 1=particle mesh
   IRESTART =      0    0=no restart 2=restart with 2 vectors
   NREBOOT  =      0    no. of reboots
   NMIN     =      0    reboot dimension
   EREF     =   0.00    reference energy to select bands
   IMIX   =      4    mixing-type and parameters
     AMIX     =   0.40;   BMIX     =  1.00
     AMIX_MAG =   1.60;   BMIX_MAG =  1.00
     AMIN     =   0.10
     WC   =   100.;   INIMIX=   1;  MIXPRE=   1;  MAXMIX= -45

 Intra band minimization:
   WEIMIN = 0.0000     energy-eigenvalue tresh-hold
   EBREAK =  0.30E-10  absolut break condition
   DEPER  =   0.30     relativ break condition  

   TIME   =   0.40     timestep for ELM

  volume/ion in A,a.u.               =      45.48       306.90
  Fermi-wavevector in a.u.,A,eV,Ry     =   0.942093  1.780298 12.075714  0.887540
  Thomas-Fermi vector in A             =   2.069669
 
 Write flags
   LWAVE  =      T    write WAVECAR
   LCHARG =      T    write CHGCAR
   LVTOT  =      F    write LOCPOT, total local potential
   LVHAR  =      F    write LOCPOT, Hartree potential only
   LELF   =      F    write electronic localiz. function (ELF)
   LORBIT =      0    0 simple, 1 ext, 2 COOP (PROOUT)


 Dipole corrections
   LMONO  =      F    monopole corrections only (constant potential shift)
   LDIPOL =      F    correct potential (dipole corrections)
   IDIPOL =      0    1-x, 2-y, 3-z, 4-all directions 
   EPSILON=  1.0000000 bulk dielectric constant

 Exchange correlation treatment:
   GGA     =    PE    GGA type
   LEXCH   =     8    internal setting for exchange type
   VOSKOWN=      0    Vosko Wilk Nusair interpolation
   LHFCALC =     F    Hartree Fock is set to
   LHFONE  =     F    Hartree Fock one center treatment
   AEXX    =    0.0000 exact exchange contribution

 Linear response parameters
   LEPSILON=     T    determine dielectric tensor
   LRPA    =     F    only Hartree local field effects (RPA)
   LNABLA  =     F    use nabla operator in PAW spheres
   LVEL    =     F    velocity operator in full k-point grid
   LINTERFAST=   F  fast interpolation
   KINTER  =     0    interpolate to denser k-point grid
   CSHIFT  =0.1000    complex shift for real part using Kramers Kronig
   OMEGAMAX=  -1.0    maximum frequency
   DEG_THRESHOLD= 0.2000000E-02 threshold for treating states as degnerate
   RTIME   =    0.100 relaxation time in fs

 Orbital magnetization related:
   ORBITALMAG=     F  switch on orbital magnetization
   LCHIMAG   =     F  perturbation theory with respect to B field
   DQ        =  0.001000  dq finite difference perturbation B field



--------------------------------------------------------------------------------------------------------


 Static calculation
 charge density and potential will be updated during run
 non-spin polarized calculation
 Variant of blocked Davidson
 Davidson routine will perform the subspace rotation
 perform sub-space diagonalisation
    after iterative eigenvector-optimisation
 modified Broyden-mixing scheme, WC =      100.0
 initial mixing is a Kerker type mixing with AMIX =  0.4000 and BMIX =      1.0000
 Hartree-type preconditioning will be used
 using additional bands           32
 reciprocal scheme for non local part
 use partial core corrections
 calculate Harris-corrections to forces 
   (improved forces if not selfconsistent)
 use gradient corrections 
 use of overlap-Matrix (Vanderbilt PP)
 Fermi weights with tetrahedron method with Bloechl corrections


--------------------------------------------------------------------------------------------------------


  energy-cutoff  :      317.13
  volume of cell :      545.73
      direct lattice vectors                 reciprocal lattice vectors
     3.550076222  0.000000000  0.000000000     0.281684093  0.162630387  0.000000000
    -1.775038111  3.074456194  0.000000000     0.000000000  0.325260774  0.000000000
     0.000000000  0.000000000 50.000000000     0.000000000  0.000000000  0.020000000

  length of vectors
     3.550076222  3.550076222 50.000000000     0.325260774  0.325260774  0.020000000


 
 k-points in units of 2pi/SCALE and weight: KPOINTS created by Atomic Simulation Env
   0.00000000  0.00000000  0.00000000       0.003
   0.01564912  0.00903502  0.00000000       0.019
   0.03129823  0.01807004  0.00000000       0.019
   0.04694735  0.02710506  0.00000000       0.019
   0.06259647  0.03614009  0.00000000       0.019
   0.07824558  0.04517511  0.00000000       0.019
   0.09389470  0.05421013  0.00000000       0.019
   0.10954381  0.06324515  0.00000000       0.019
   0.12519293  0.07228017  0.00000000       0.019
   0.14084205  0.08131519  0.00000000       0.009
   0.01564912  0.02710506  0.00000000       0.019
   0.03129823  0.03614009  0.00000000       0.037
   0.04694735  0.04517511  0.00000000       0.037
   0.06259647  0.05421013  0.00000000       0.037
   0.07824558  0.06324515  0.00000000       0.037
   0.09389470  0.07228017  0.00000000       0.037
   0.10954381  0.08131519  0.00000000       0.037
   0.12519293  0.09035021  0.00000000       0.037
   0.03129823  0.05421013  0.00000000       0.019
   0.04694735  0.06324515  0.00000000       0.037
   0.06259647  0.07228017  0.00000000       0.037
   0.07824558  0.08131519  0.00000000       0.037
   0.09389470  0.09035021  0.00000000       0.037
   0.10954381  0.09938524  0.00000000       0.037
   0.12519293  0.10842026  0.00000000       0.019
   0.04694735  0.08131519  0.00000000       0.019
   0.06259647  0.09035021  0.00000000       0.037
   0.07824558  0.09938524  0.00000000       0.037
   0.09389470  0.10842026  0.00000000       0.037
   0.10954381  0.11745528  0.00000000       0.037
   0.06259647  0.10842026  0.00000000       0.019
   0.07824558  0.11745528  0.00000000       0.037
   0.09389470  0.12649030  0.00000000       0.037
   0.10954381  0.13552532  0.00000000       0.019
   0.07824558  0.13552532  0.00000000       0.019
   0.09389470  0.14456034  0.00000000       0.037
   0.09389470  0.16263039  0.00000000       0.006
 
 k-points in reciprocal lattice and weights: KPOINTS created by Atomic Simulation Env
   0.00000000  0.00000000  0.00000000       0.003
   0.05555556  0.00000000  0.00000000       0.019
   0.11111111  0.00000000  0.00000000       0.019
   0.16666667  0.00000000  0.00000000       0.019
   0.22222222  0.00000000  0.00000000       0.019
   0.27777778  0.00000000  0.00000000       0.019
   0.33333333  0.00000000  0.00000000       0.019
   0.38888889  0.00000000  0.00000000       0.019
   0.44444444  0.00000000  0.00000000       0.019
   0.50000000  0.00000000  0.00000000       0.009
   0.05555556  0.05555556  0.00000000       0.019
   0.11111111  0.05555556  0.00000000       0.037
   0.16666667  0.05555556  0.00000000       0.037
   0.22222222  0.05555556  0.00000000       0.037
   0.27777778  0.05555556  0.00000000       0.037
   0.33333333  0.05555556  0.00000000       0.037
   0.38888889  0.05555556  0.00000000       0.037
   0.44444444  0.05555556  0.00000000       0.037
   0.11111111  0.11111111  0.00000000       0.019
   0.16666667  0.11111111  0.00000000       0.037
   0.22222222  0.11111111  0.00000000       0.037
   0.27777778  0.11111111  0.00000000       0.037
   0.33333333  0.11111111  0.00000000       0.037
   0.38888889  0.11111111  0.00000000       0.037
   0.44444444  0.11111111  0.00000000       0.019
   0.16666667  0.16666667  0.00000000       0.019
   0.22222222  0.16666667  0.00000000       0.037
   0.27777778  0.16666667  0.00000000       0.037
   0.33333333  0.16666667  0.00000000       0.037
   0.38888889  0.16666667  0.00000000       0.037
   0.22222222  0.22222222  0.00000000       0.019
   0.27777778  0.22222222  0.00000000       0.037
   0.33333333  0.22222222  0.00000000       0.037
   0.38888889  0.22222222  0.00000000       0.019
   0.27777778  0.27777778  0.00000000       0.019
   0.33333333  0.27777778  0.00000000       0.037
   0.33333333  0.33333333  0.00000000       0.006
 
 position of ions in fractional coordinates (direct lattice) 
   0.16666667  0.33333333  0.28820000
   0.83333333  0.66666667  0.42940000
   0.16666667  0.33333333  0.57060000
   0.83333333  0.66666667  0.71180000
   0.83333333  0.66666667  0.32443924
   0.83333333  0.66666667  0.25196076
   0.16666667  0.33333333  0.46563924
   0.16666667  0.33333333  0.39316076
   0.83333333  0.66666667  0.60683924
   0.83333333  0.66666667  0.53436076
   0.16666667  0.33333333  0.74803924
   0.16666667  0.33333333  0.67556076
 
 position of ions in cartesian coordinates  (Angst):
  -0.00000000  1.02481873 14.41000000
   1.77503811  2.04963746 21.47000000
  -0.00000000  1.02481873 28.53000000
   1.77503811  2.04963746 35.59000000
   1.77503811  2.04963746 16.22196221
   1.77503811  2.04963746 12.59803779
  -0.00000000  1.02481873 23.28196221
  -0.00000000  1.02481873 19.65803779
   1.77503811  2.04963746 30.34196221
   1.77503811  2.04963746 26.71803779
  -0.00000000  1.02481873 37.40196221
  -0.00000000  1.02481873 33.77803779
 


--------------------------------------------------------------------------------------------------------


 k-point  1 :   0.0000 0.0000 0.0000  plane waves:    6937
 k-point  2 :   0.0556 0.0000 0.0000  plane waves:    6949
 k-point  3 :   0.1111 0.0000 0.0000  plane waves:    6915
 k-point  4 :   0.1667 0.0000 0.0000  plane waves:    6927
 k-point  5 :   0.2222 0.0000 0.0000  plane waves:    6983
 k-point  6 :   0.2778 0.0000 0.0000  plane waves:    7013
 k-point  7 :   0.3333 0.0000 0.0000  plane waves:    7017
 k-point  8 :   0.3889 0.0000 0.0000  plane waves:    7031
 k-point  9 :   0.4444 0.0000 0.0000  plane waves:    7031
 k-point 10 :   0.5000 0.0000 0.0000  plane waves:    7042
 k-point 11 :   0.0556 0.0556 0.0000  plane waves:    6931
 k-point 12 :   0.1111 0.0556 0.0000  plane waves:    6925
 k-point 13 :   0.1667 0.0556 0.0000  plane waves:    6950
 k-point 14 :   0.2222 0.0556 0.0000  plane waves:    7000
 k-point 15 :   0.2778 0.0556 0.0000  plane waves:    7018
 k-point 16 :   0.3333 0.0556 0.0000  plane waves:    7028
 k-point 17 :   0.3889 0.0556 0.0000  plane waves:    7035
 k-point 18 :   0.4444 0.0556 0.0000  plane waves:    7024
 k-point 19 :   0.1111 0.1111 0.0000  plane waves:    6963
 k-point 20 :   0.1667 0.1111 0.0000  plane waves:    6972
 k-point 21 :   0.2222 0.1111 0.0000  plane waves:    6994
 k-point 22 :   0.2778 0.1111 0.0000  plane waves:    7025
 k-point 23 :   0.3333 0.1111 0.0000  plane waves:    7033
 k-point 24 :   0.3889 0.1111 0.0000  plane waves:    7033
 k-point 25 :   0.4444 0.1111 0.0000  plane waves:    7024
 k-point 26 :   0.1667 0.1667 0.0000  plane waves:    6971
 k-point 27 :   0.2222 0.1667 0.0000  plane waves:    7005
 k-point 28 :   0.2778 0.1667 0.0000  plane waves:    7005
 k-point 29 :   0.3333 0.1667 0.0000  plane waves:    7024
 k-point 30 :   0.3889 0.1667 0.0000  plane waves:    7005
 k-point 31 :   0.2222 0.2222 0.0000  plane waves:    7015
 k-point 32 :   0.2778 0.2222 0.0000  plane waves:    7013
 k-point 33 :   0.3333 0.2222 0.0000  plane waves:    7014
 k-point 34 :   0.3889 0.2222 0.0000  plane waves:    6993
 k-point 35 :   0.2778 0.2778 0.0000  plane waves:    7009
 k-point 36 :   0.3333 0.2778 0.0000  plane waves:    6982
 k-point 37 :   0.3333 0.3333 0.0000  plane waves:    6969

 maximum and minimum number of plane-waves per node :      7042     6915

 maximum number of plane-waves:      7042
 maximum index in each direction: 
   IXMAX=    5   IYMAX=    5   IZMAX=   72
   IXMIN=   -5   IYMIN=   -5   IZMIN=  -72

 NGX is ok and might be reduce to  22
 NGY is ok and might be reduce to  22
 NGZ is ok and might be reduce to 290

 serial   3D FFT for wavefunctions
 parallel 3D FFT for charge:
    minimum data exchange during FFTs selected (reduces bandwidth)


 total amount of memory used by VASP on root node   165796. kBytes
========================================================================

   base      :      30000. kBytes
   nonl-proj :     109960. kBytes
   fftplans  :       2517. kBytes
   grid      :       9951. kBytes
   one-center:        389. kBytes
   wavefun   :      12979. kBytes
 
     INWAV:  cpu time    0.0000: real time    0.0000
 Broyden mixing: mesh for mixing (old mesh)
   NGX = 11   NGY = 11   NGZ =145
  (NGX  = 48   NGY  = 48   NGZ  =588)
  gives a total of  17545 points

 initial charge density was supplied:
 charge density of overlapping atoms calculated
 number of electron     104.0000000 magnetization 
 keeping initial charge density in first step


--------------------------------------------------------------------------------------------------------


 Maximum index for augmentation-charges          992 (set IRDMAX)


--------------------------------------------------------------------------------------------------------


 First call to EWALD:  gamma=   0.217
 Maximum number of real-space cells 6x 6x 1
 Maximum number of reciprocal cells 1x 1x14

 FEWALD executed in parallel
    FEWALD:  cpu time    0.0010: real time    0.0012


----------------------------------------- Iteration    1(   1)  ---------------------------------------


    POTLOK:  cpu time    0.0420: real time    0.0429
    SETDIJ:  cpu time    0.0080: real time    0.0079
     EDDAV:  cpu time    8.2887: real time    8.3003
 BZINTS: Fermi energy: 11.704734;104.000000 electrons
         Band energy:-770.631688;  BLOECHL correction: -0.081104
       DOS:  cpu time    0.0270: real time    0.0274
    --------------------------------------------
      LOOP:  cpu time    8.3677: real time    8.3807

 eigenvalue-minimisations  :  8036
 total energy-change (2. order) : 0.6715027E+03  (-0.4125612E+04)
 number of electron     104.0000000 magnetization 
 augmentation part      104.0000000 magnetization 

 Free energy of the ion-electron system (eV)
  ---------------------------------------------------
  alpha Z        PSCENC =       120.79021014
  Ewald energy   TEWEN  =     68632.27735807
  -Hartree energ DENC   =    -76964.30909095
  -exchange      EXHF   =         0.00000000
  -V(xc)+E(xc)   XCENC  =      -297.46621671
  PAW double counting   =      7894.17874845    -7184.14497440
  entropy T*S    EENTRO =         0.00000000
  eigenvalues    EBANDS =      -770.63168808
  atomic energy  EATOM  =      9240.80831792
  Solvation  Ediel_sol  =         0.00000000
  ---------------------------------------------------
  free energy    TOTEN  =       671.50266444 eV

  energy without entropy =      671.50266444  energy(sigma->0) =      671.50266444


--------------------------------------------------------------------------------------------------------




----------------------------------------- Iteration    1(   2)  ---------------------------------------


     EDDAV:  cpu time    9.8205: real time    9.8399
 BZINTS: Fermi energy:  4.218731;104.000000 electrons
         Band energy:***********;  BLOECHL correction:  0.000000
       DOS:  cpu time    0.0060: real time    0.0053
    --------------------------------------------
      LOOP:  cpu time    9.8285: real time    9.8478

 eigenvalue-minimisations  :  9856
 total energy-change (2. order) :-0.7167232E+03  (-0.6970192E+03)
 number of electron     104.0000000 magnetization 
 augmentation part      104.0000000 magnetization 

 Free energy of the ion-electron system (eV)
  ---------------------------------------------------
  alpha Z        PSCENC =       120.79021014
  Ewald energy   TEWEN  =     68632.27735807
  -Hartree energ DENC   =    -76964.30909095
  -exchange      EXHF   =         0.00000000
  -V(xc)+E(xc)   XCENC  =      -297.46621671
  PAW double counting   =      7894.17874845    -7184.14497440
  entropy T*S    EENTRO =         0.00000000
  eigenvalues    EBANDS =     -1487.35491589
  atomic energy  EATOM  =      9240.80831792
  Solvation  Ediel_sol  =         0.00000000
  ---------------------------------------------------
  free energy    TOTEN  =       -45.22056337 eV

  energy without entropy =      -45.22056337  energy(sigma->0) =      -45.22056337


--------------------------------------------------------------------------------------------------------




----------------------------------------- Iteration    1(   3)  ---------------------------------------


     EDDAV:  cpu time    8.9706: real time    8.9887
 BZINTS: Fermi energy:  3.061569;104.000000 electrons
         Band energy:***********;  BLOECHL correction:  0.000000
       DOS:  cpu time    0.0050: real time    0.0045
    --------------------------------------------
      LOOP:  cpu time    8.9766: real time    8.9959

 eigenvalue-minimisations  :  8820
 total energy-change (2. order) :-0.4647653E+02  (-0.4571531E+02)
 number of electron     104.0000000 magnetization 
 augmentation part      104.0000000 magnetization 

 Free energy of the ion-electron system (eV)
  ---------------------------------------------------
  alpha Z        PSCENC =       120.79021014
  Ewald energy   TEWEN  =     68632.27735807
  -Hartree energ DENC   =    -76964.30909095
  -exchange      EXHF   =         0.00000000
  -V(xc)+E(xc)   XCENC  =      -297.46621671
  PAW double counting   =      7894.17874845    -7184.14497440
  entropy T*S    EENTRO =         0.00000000
  eigenvalues    EBANDS =     -1533.83144097
  atomic energy  EATOM  =      9240.80831792
  Solvation  Ediel_sol  =         0.00000000
  ---------------------------------------------------
  free energy    TOTEN  =       -91.69708845 eV

  energy without entropy =      -91.69708845  energy(sigma->0) =      -91.69708845


--------------------------------------------------------------------------------------------------------




----------------------------------------- Iteration    1(   4)  ---------------------------------------


     EDDAV:  cpu time    9.0056: real time    9.0160
 BZINTS: Fermi energy:  3.118559;104.000000 electrons
         Band energy:***********;  BLOECHL correction:  0.000000
       DOS:  cpu time    0.0050: real time    0.0052
    --------------------------------------------
      LOOP:  cpu time    9.0106: real time    9.0253

 eigenvalue-minimisations  :  8708
 total energy-change (2. order) :-0.1499664E+01  (-0.1497263E+01)
 number of electron     104.0000000 magnetization 
 augmentation part      104.0000000 magnetization 

 Free energy of the ion-electron system (eV)
  ---------------------------------------------------
  alpha Z        PSCENC =       120.79021014
  Ewald energy   TEWEN  =     68632.27735807
  -Hartree energ DENC   =    -76964.30909095
  -exchange      EXHF   =         0.00000000
  -V(xc)+E(xc)   XCENC  =      -297.46621671
  PAW double counting   =      7894.17874845    -7184.14497440
  entropy T*S    EENTRO =         0.00000000
  eigenvalues    EBANDS =     -1535.33110499
  atomic energy  EATOM  =      9240.80831792
  Solvation  Ediel_sol  =         0.00000000
  ---------------------------------------------------
  free energy    TOTEN  =       -93.19675247 eV

  energy without entropy =      -93.19675247  energy(sigma->0) =      -93.19675247


--------------------------------------------------------------------------------------------------------




----------------------------------------- Iteration    1(   5)  ---------------------------------------


     EDDAV:  cpu time    9.9155: real time    9.9311
 BZINTS: Fermi energy:  3.092120;104.000000 electrons
         Band energy:***********;  BLOECHL correction:  0.000000
       DOS:  cpu time    0.0050: real time    0.0051
    CHARGE:  cpu time    0.3349: real time    0.3352
    MIXING:  cpu time    0.0020: real time    0.0015
    --------------------------------------------
      LOOP:  cpu time   10.2644: real time   10.2813

 eigenvalue-minimisations  :  9156
 total energy-change (2. order) :-0.2649695E-01  (-0.2648746E-01)
 number of electron     103.9999987 magnetization 
 augmentation part      -18.0973174 magnetization 

 Broyden mixing:
  rms(total) = 0.15626E+02    rms(broyden)= 0.15626E+02
  rms(prec ) = 0.15629E+02
  weight for this iteration     100.00

 Free energy of the ion-electron system (eV)
  ---------------------------------------------------
  alpha Z        PSCENC =       120.79021014
  Ewald energy   TEWEN  =     68632.27735807
  -Hartree energ DENC   =    -76964.30909095
  -exchange      EXHF   =         0.00000000
  -V(xc)+E(xc)   XCENC  =      -297.46621671
  PAW double counting   =      7894.17874845    -7184.14497440
  entropy T*S    EENTRO =         0.00000000
  eigenvalues    EBANDS =     -1535.35760194
  atomic energy  EATOM  =      9240.80831792
  Solvation  Ediel_sol  =         0.00000000
  ---------------------------------------------------
  free energy    TOTEN  =       -93.22324942 eV

  energy without entropy =      -93.22324942  energy(sigma->0) =      -93.22324942


--------------------------------------------------------------------------------------------------------




----------------------------------------- Iteration    1(   6)  ---------------------------------------


    POTLOK:  cpu time    0.0400: real time    0.0403
    SETDIJ:  cpu time    0.0080: real time    0.0078
     EDDAV:  cpu time    7.4829: real time    7.5033
 BZINTS: Fermi energy:  1.754846;104.000000 electrons
         Band energy:***********;  BLOECHL correction:  0.000000
       DOS:  cpu time    0.0050: real time    0.0044
    CHARGE:  cpu time    0.3499: real time    0.3564
    MIXING:  cpu time    0.0010: real time    0.0014
    --------------------------------------------
      LOOP:  cpu time    7.8868: real time    7.9182

 eigenvalue-minimisations  :  6804
 total energy-change (2. order) : 0.5625388E+01  (-0.2655520E+01)
 number of electron     103.9999988 magnetization 
 augmentation part      -16.9316447 magnetization 

 Broyden mixing:
  rms(total) = 0.13839E+02    rms(broyden)= 0.13839E+02
  rms(prec ) = 0.13840E+02
  weight for this iteration     100.00

 eigenvalues of (default mixing * dielectric matrix)
  average eigenvalue GAMMA=   4.6649
  4.6649

 Free energy of the ion-electron system (eV)
  ---------------------------------------------------
  alpha Z        PSCENC =       120.79021014
  Ewald energy   TEWEN  =     68632.27735807
  -Hartree energ DENC   =    -76813.16993654
  -exchange      EXHF   =         0.00000000
  -V(xc)+E(xc)   XCENC  =      -300.87997669
  PAW double counting   =      9440.64464273    -8736.07532451
  entropy T*S    EENTRO =         0.00000000
  eigenvalues    EBANDS =     -1671.99315208
  atomic energy  EATOM  =      9240.80831792
  Solvation  Ediel_sol  =         0.00000000
  ---------------------------------------------------
  free energy    TOTEN  =       -87.59786097 eV

  energy without entropy =      -87.59786097  energy(sigma->0) =      -87.59786097


--------------------------------------------------------------------------------------------------------




----------------------------------------- Iteration    1(   7)  ---------------------------------------


    POTLOK:  cpu time    0.0400: real time    0.0430
    SETDIJ:  cpu time    0.0100: real time    0.0099
     EDDAV:  cpu time    9.7635: real time    9.8020
 BZINTS: Fermi energy:  5.688756;104.000000 electrons
         Band energy:***********;  BLOECHL correction: -0.004103
       DOS:  cpu time    0.0220: real time    0.0217
    CHARGE:  cpu time    0.3389: real time    0.3393
    MIXING:  cpu time    0.0020: real time    0.0014
    --------------------------------------------
      LOOP:  cpu time   10.1775: real time   10.2246

 eigenvalue-minimisations  :  8960
 total energy-change (2. order) :-0.3449730E+02  (-0.1267762E+02)
 number of electron     103.9999987 magnetization 
 augmentation part      -18.6970717 magnetization 

 Broyden mixing:
  rms(total) = 0.18401E+02    rms(broyden)= 0.18401E+02
  rms(prec ) = 0.18423E+02
  weight for this iteration     100.00

 eigenvalues of (default mixing * dielectric matrix)
  average eigenvalue GAMMA=   1.5089
  0.8004  2.2174

 Free energy of the ion-electron system (eV)
  ---------------------------------------------------
  alpha Z        PSCENC =       120.79021014
  Ewald energy   TEWEN  =     68632.27735807
  -Hartree energ DENC   =    -77214.85607241
  -exchange      EXHF   =         0.00000000
  -V(xc)+E(xc)   XCENC  =      -297.03099466
  PAW double counting   =     16644.41693087   -15920.67328077
  entropy T*S    EENTRO =         0.00000000
  eigenvalues    EBANDS =     -1327.82762688
  atomic energy  EATOM  =      9240.80831792
  Solvation  Ediel_sol  =         0.00000000
  ---------------------------------------------------
  free energy    TOTEN  =      -122.09515772 eV

  energy without entropy =     -122.09515772  energy(sigma->0) =     -122.09515772


--------------------------------------------------------------------------------------------------------




----------------------------------------- Iteration    1(   8)  ---------------------------------------


    POTLOK:  cpu time    0.0390: real time    0.0398
    SETDIJ:  cpu time    0.0080: real time    0.0078
     EDDAV:  cpu time    9.0246: real time    9.0381
 BZINTS: Fermi energy:  2.258123;104.000000 electrons
         Band energy:***********;  BLOECHL correction:  0.000000
       DOS:  cpu time    0.0040: real time    0.0044
    CHARGE:  cpu time    0.3299: real time    0.3308
    MIXING:  cpu time    0.0020: real time    0.0013
    --------------------------------------------
      LOOP:  cpu time    9.4086: real time    9.4258

 eigenvalue-minimisations  :  8148
 total energy-change (2. order) : 0.3719466E+02  (-0.8516689E+01)
 number of electron     103.9999988 magnetization 
 augmentation part      -17.2749143 magnetization 

 Broyden mixing:
  rms(total) = 0.35037E+00    rms(broyden)= 0.35022E+00
  rms(prec ) = 0.35202E+00
  weight for this iteration     100.00

 eigenvalues of (default mixing * dielectric matrix)
  average eigenvalue GAMMA=   1.3186
  2.4375  0.7591  0.7591

 Free energy of the ion-electron system (eV)
  ---------------------------------------------------
  alpha Z        PSCENC =       120.79021014
  Ewald energy   TEWEN  =     68632.27735807
  -Hartree energ DENC   =    -76860.41544065
  -exchange      EXHF   =         0.00000000
  -V(xc)+E(xc)   XCENC  =      -300.79576818
  PAW double counting   =     12312.30621438   -11601.68643185
  entropy T*S    EENTRO =         0.00000000
  eigenvalues    EBANDS =     -1628.18495517
  atomic energy  EATOM  =      9240.80831792
  Solvation  Ediel_sol  =         0.00000000
  ---------------------------------------------------
  free energy    TOTEN  =       -84.90049535 eV

  energy without entropy =      -84.90049535  energy(sigma->0) =      -84.90049535


--------------------------------------------------------------------------------------------------------




----------------------------------------- Iteration    1(   9)  ---------------------------------------


    POTLOK:  cpu time    0.0370: real time    0.0380
    SETDIJ:  cpu time    0.0080: real time    0.0079
     EDDAV:  cpu time    8.2677: real time    8.2776
 BZINTS: Fermi energy:  2.375596;104.000000 electrons
         Band energy:***********;  BLOECHL correction:  0.000000
       DOS:  cpu time    0.0050: real time    0.0050
    CHARGE:  cpu time    0.3409: real time    0.3408
    MIXING:  cpu time    0.0010: real time    0.0014
    --------------------------------------------
      LOOP:  cpu time    8.6607: real time    8.6733

 eigenvalue-minimisations  :  7644
 total energy-change (2. order) :-0.1079498E+01  (-0.1138227E+01)
 number of electron     103.9999988 magnetization 
 augmentation part      -17.2504466 magnetization 

 Broyden mixing:
  rms(total) = 0.14730E+01    rms(broyden)= 0.14730E+01
  rms(prec ) = 0.14731E+01
  weight for this iteration     100.00

 eigenvalues of (default mixing * dielectric matrix)
  average eigenvalue GAMMA=   1.0825
  2.2861  0.8674  0.8674  0.3088

 Free energy of the ion-electron system (eV)
  ---------------------------------------------------
  alpha Z        PSCENC =       120.79021014
  Ewald energy   TEWEN  =     68632.27735807
  -Hartree energ DENC   =    -76865.16728521
  -exchange      EXHF   =         0.00000000
  -V(xc)+E(xc)   XCENC  =      -300.89743733
  PAW double counting   =     12585.71722258   -11875.02697656
  entropy T*S    EENTRO =         0.00000000
  eigenvalues    EBANDS =     -1624.48140264
  atomic energy  EATOM  =      9240.80831792
  Solvation  Ediel_sol  =         0.00000000
  ---------------------------------------------------
  free energy    TOTEN  =       -85.97999303 eV

  energy without entropy =      -85.97999303  energy(sigma->0) =      -85.97999303


--------------------------------------------------------------------------------------------------------




----------------------------------------- Iteration    1(  10)  ---------------------------------------


    POTLOK:  cpu time    0.0380: real time    0.0391
    SETDIJ:  cpu time    0.0080: real time    0.0079
     EDDAV:  cpu time   10.2724: real time   10.2844
 BZINTS: Fermi energy:  2.366296;104.000000 electrons
         Band energy:***********;  BLOECHL correction:  0.000000
       DOS:  cpu time    0.0050: real time    0.0049
    CHARGE:  cpu time    0.3369: real time    0.3382
    MIXING:  cpu time    0.0020: real time    0.0014
    --------------------------------------------
      LOOP:  cpu time   10.6634: real time   10.6786

 eigenvalue-minimisations  :  9800
 total energy-change (2. order) :-0.2184825E-01  (-0.3110301E-01)
 number of electron     103.9999988 magnetization 
 augmentation part      -17.2494268 magnetization 

 Broyden mixing:
  rms(total) = 0.10405E+01    rms(broyden)= 0.10405E+01
  rms(prec ) = 0.10407E+01
  weight for this iteration     100.00

 eigenvalues of (default mixing * dielectric matrix)
  average eigenvalue GAMMA=   0.8885
  2.2689  0.8728  0.8728  0.2140  0.2140

 Free energy of the ion-electron system (eV)
  ---------------------------------------------------
  alpha Z        PSCENC =       120.79021014
  Ewald energy   TEWEN  =     68632.27735807
  -Hartree energ DENC   =    -76867.52647618
  -exchange      EXHF   =         0.00000000
  -V(xc)+E(xc)   XCENC  =      -300.85319027
  PAW double counting   =     12372.68137298   -11661.93336709
  entropy T*S    EENTRO =         0.00000000
  eigenvalues    EBANDS =     -1622.24606685
  atomic energy  EATOM  =      9240.80831792
  Solvation  Ediel_sol  =         0.00000000
  ---------------------------------------------------
  free energy    TOTEN  =       -86.00184128 eV

  energy without entropy =      -86.00184128  energy(sigma->0) =      -86.00184128


--------------------------------------------------------------------------------------------------------




----------------------------------------- Iteration    1(  11)  ---------------------------------------


    POTLOK:  cpu time    0.0380: real time    0.0391
    SETDIJ:  cpu time    0.0080: real time    0.0079
     EDDAV:  cpu time    9.1496: real time    9.1652
 BZINTS: Fermi energy:  2.360075;104.000000 electrons
         Band energy:***********;  BLOECHL correction:  0.000000
       DOS:  cpu time    0.0050: real time    0.0051
    CHARGE:  cpu time    0.3469: real time    0.3479
    MIXING:  cpu time    0.0010: real time    0.0015
    --------------------------------------------
      LOOP:  cpu time    9.5505: real time    9.5706

 eigenvalue-minimisations  :  8372
 total energy-change (2. order) : 0.4960318E-02  (-0.4646436E-03)
 number of electron     103.9999988 magnetization 
 augmentation part      -17.2500821 magnetization 

 Broyden mixing:
  rms(total) = 0.89507E+00    rms(broyden)= 0.89507E+00
  rms(prec ) = 0.89532E+00
  weight for this iteration     100.00

 eigenvalues of (default mixing * dielectric matrix)
  average eigenvalue GAMMA=   1.3948
  2.6595  2.6595  0.9394  0.8087  0.8087  0.4931

 Free energy of the ion-electron system (eV)
  ---------------------------------------------------
  alpha Z        PSCENC =       120.79021014
  Ewald energy   TEWEN  =     68632.27735807
  -Hartree energ DENC   =    -76869.14686092
  -exchange      EXHF   =         0.00000000
  -V(xc)+E(xc)   XCENC  =      -300.83271035
  PAW double counting   =     12309.93095157   -11599.10844860
  entropy T*S    EENTRO =         0.00000000
  eigenvalues    EBANDS =     -1620.71569879
  atomic energy  EATOM  =      9240.80831792
  Solvation  Ediel_sol  =         0.00000000
  ---------------------------------------------------
  free energy    TOTEN  =       -85.99688096 eV

  energy without entropy =      -85.99688096  energy(sigma->0) =      -85.99688096


--------------------------------------------------------------------------------------------------------




----------------------------------------- Iteration    1(  12)  ---------------------------------------


    POTLOK:  cpu time    0.0410: real time    0.0411
    SETDIJ:  cpu time    0.0080: real time    0.0078
     EDDAV:  cpu time    8.9086: real time    8.9168
 BZINTS: Fermi energy:  2.374527;104.000000 electrons
         Band energy:***********;  BLOECHL correction:  0.000000
       DOS:  cpu time    0.0050: real time    0.0050
    CHARGE:  cpu time    0.3329: real time    0.3378
    MIXING:  cpu time    0.0020: real time    0.0014
    --------------------------------------------
      LOOP:  cpu time    9.2986: real time    9.3126

 eigenvalue-minimisations  :  8708
 total energy-change (2. order) : 0.2419386E-01  (-0.2496142E-02)
 number of electron     103.9999988 magnetization 
 augmentation part      -17.2480519 magnetization 

 Broyden mixing:
  rms(total) = 0.33003E+00    rms(broyden)= 0.33003E+00
  rms(prec ) = 0.33019E+00
  weight for this iteration     100.00

 eigenvalues of (default mixing * dielectric matrix)
  average eigenvalue GAMMA=   1.2465
  2.4385  2.4385  0.9467  0.9467  0.8383  0.5583  0.5583

 Free energy of the ion-electron system (eV)
  ---------------------------------------------------
  alpha Z        PSCENC =       120.79021014
  Ewald energy   TEWEN  =     68632.27735807
  -Hartree energ DENC   =    -76883.40936114
  -exchange      EXHF   =         0.00000000
  -V(xc)+E(xc)   XCENC  =      -300.70038268
  PAW double counting   =     11913.94963247   -11202.34828219
  entropy T*S    EENTRO =         0.00000000
  eigenvalues    EBANDS =     -1607.34017969
  atomic energy  EATOM  =      9240.80831792
  Solvation  Ediel_sol  =         0.00000000
  ---------------------------------------------------
  free energy    TOTEN  =       -85.97268711 eV

  energy without entropy =      -85.97268711  energy(sigma->0) =      -85.97268711


--------------------------------------------------------------------------------------------------------




----------------------------------------- Iteration    1(  13)  ---------------------------------------


    POTLOK:  cpu time    0.0380: real time    0.0392
    SETDIJ:  cpu time    0.0080: real time    0.0079
     EDDAV:  cpu time    8.9176: real time    8.9250
 BZINTS: Fermi energy:  2.429692;104.000000 electrons
         Band energy:***********;  BLOECHL correction:  0.000000
       DOS:  cpu time    0.0040: real time    0.0044
    CHARGE:  cpu time    0.3350: real time    0.3349
    MIXING:  cpu time    0.0020: real time    0.0014
    --------------------------------------------
      LOOP:  cpu time    9.3056: real time    9.3176

 eigenvalue-minimisations  :  8764
 total energy-change (2. order) : 0.4204298E-02  (-0.9212472E-03)
 number of electron     103.9999988 magnetization 
 augmentation part      -17.2511221 magnetization 

 Broyden mixing:
  rms(total) = 0.12945E+00    rms(broyden)= 0.12945E+00
  rms(prec ) = 0.12953E+00
  weight for this iteration     100.00

 eigenvalues of (default mixing * dielectric matrix)
  average eigenvalue GAMMA=   1.1494
  2.4034  2.4034  0.9273  0.8797  0.8797  0.6319  0.6319  0.4376

 Free energy of the ion-electron system (eV)
  ---------------------------------------------------
  alpha Z        PSCENC =       120.79021014
  Ewald energy   TEWEN  =     68632.27735807
  -Hartree energ DENC   =    -76888.25554217
  -exchange      EXHF   =         0.00000000
  -V(xc)+E(xc)   XCENC  =      -300.63799678
  PAW double counting   =     11779.21089563   -11067.38693176
  entropy T*S    EENTRO =         0.00000000
  eigenvalues    EBANDS =     -1602.77479385
  atomic energy  EATOM  =      9240.80831792
  Solvation  Ediel_sol  =         0.00000000
  ---------------------------------------------------
  free energy    TOTEN  =       -85.96848281 eV

  energy without entropy =      -85.96848281  energy(sigma->0) =      -85.96848281


--------------------------------------------------------------------------------------------------------




----------------------------------------- Iteration    1(  14)  ---------------------------------------


    POTLOK:  cpu time    0.0360: real time    0.0376
    SETDIJ:  cpu time    0.0080: real time    0.0078
[...]
    LRDIAG:  cpu time    0.2610: real time    0.2613
    MIXING:  cpu time    0.0020: real time    0.0023
    --------------------------------------------
      LOOP:  cpu time    9.5975: real time    9.6426

 Broyden mixing:
  rms(total) = 0.33646E-05    rms(broyden)= 0.33645E-05
  rms(prec ) = 0.44050E-05
  weight for this iteration     100.00

 eigenvalues of (default mixing * dielectric matrix)
  average eigenvalue GAMMA=   2.1090
  8.2462  6.3757  3.9995  3.9995  2.7404  2.7404  2.0474  2.0474  1.6142  1.6142
  1.0268  0.9700  0.9700  0.9401  0.9401  0.8497  0.7260  0.6266  0.6257  0.5930
  0.5960

 Free energy of the ion-electron system (eV)
  ---------------------------------------------------
  -Hartree energ DENC   =        -1.21662226
  -V(xc)+E(xc)   XCENC  =         0.01918223
  PAW double counting   =         0.04091360       -0.04041517
  entropy T*S    EENTRO =         0.00000000
  eigenvalues    EBANDS =        -0.37191169
  ---------------------------------------------------
  free energy    TOTEN  =        -1.56885330 eV

  energy without entropy =       -1.56885330


----------------------------------------- Iteration    3(  24)  ---------------------------------------


   POT+DIJ:  cpu time    0.0960: real time    0.0976
    HAMIL1:  cpu time    1.7257: real time    1.7277
    LRDIAG:  cpu time    0.2630: real time    0.2642
    LRDIIS:  cpu time    6.6250: real time    6.6419
    LRDIAG:  cpu time    0.2570: real time    0.2571
    MIXING:  cpu time    0.0020: real time    0.0023
    --------------------------------------------
      LOOP:  cpu time    9.7235: real time    9.7486

 Broyden mixing:
  rms(total) = 0.22074E-05    rms(broyden)= 0.22073E-05
  rms(prec ) = 0.26343E-05
  weight for this iteration     100.00

 eigenvalues of (default mixing * dielectric matrix)
  average eigenvalue GAMMA=   2.1548
  8.1580  6.8895  4.4995  4.4995  2.9433  2.9433  2.1737  2.1737  1.7490  1.5568
  1.0409  1.0409  0.9625  0.9625  0.9268  0.9268  0.7263  0.7709  0.5930  0.6265
  0.6401  0.6032

 Free energy of the ion-electron system (eV)
  ---------------------------------------------------
  -Hartree energ DENC   =        -1.21662193
  -V(xc)+E(xc)   XCENC  =         0.01918163
  PAW double counting   =         0.04091348       -0.04041501
  entropy T*S    EENTRO =         0.00000000
  eigenvalues    EBANDS =        -0.37192536
  ---------------------------------------------------
  free energy    TOTEN  =        -1.56886718 eV

  energy without entropy =       -1.56886718


----------------------------------------- Iteration    3(  25)  ---------------------------------------


   POT+DIJ:  cpu time    0.0960: real time    0.0970
    HAMIL1:  cpu time    1.7357: real time    1.7392
    LRDIAG:  cpu time    0.2630: real time    0.2630
    LRDIIS:  cpu time    6.2660: real time    6.2764
    LRDIAG:  cpu time    0.2570: real time    0.2569
    MIXING:  cpu time    0.0020: real time    0.0024
    --------------------------------------------
      LOOP:  cpu time    9.3706: real time    9.3885

 Broyden mixing:
  rms(total) = 0.22361E-05    rms(broyden)= 0.22361E-05
  rms(prec ) = 0.23060E-05
  weight for this iteration     100.00

 eigenvalues of (default mixing * dielectric matrix)
  average eigenvalue GAMMA=   2.2165
  7.9456  7.9456  5.2130  4.4327  3.0447  3.0447  2.2476  2.2476  1.8042  1.8042
  1.4849  1.0924  0.9734  0.9734  0.9414  0.9264  0.9264  0.7261  0.7478  0.5930
  0.6265  0.6352  0.6031

 Free energy of the ion-electron system (eV)
  ---------------------------------------------------
  -Hartree energ DENC   =        -1.21662309
  -V(xc)+E(xc)   XCENC  =         0.01918127
  PAW double counting   =         0.04091187       -0.04041341
  entropy T*S    EENTRO =         0.00000000
  eigenvalues    EBANDS =        -0.37193546
  ---------------------------------------------------
  free energy    TOTEN  =        -1.56887882 eV

  energy without entropy =       -1.56887882


----------------------------------------- Iteration    3(  26)  ---------------------------------------


   POT+DIJ:  cpu time    0.0960: real time    0.0969
    HAMIL1:  cpu time    1.7387: real time    1.7410
    LRDIAG:  cpu time    0.2640: real time    0.2643
    LRDIIS:  cpu time    6.0861: real time    6.1063
    LRDIAG:  cpu time    0.2620: real time    0.2668
    MIXING:  cpu time    0.0030: real time    0.0026
    --------------------------------------------
      LOOP:  cpu time    9.1906: real time    9.2450

 Broyden mixing:
  rms(total) = 0.83768E-06    rms(broyden)= 0.83764E-06
  rms(prec ) = 0.86497E-06
  weight for this iteration     100.00

 eigenvalues of (default mixing * dielectric matrix)
  average eigenvalue GAMMA=   2.2768
  8.7457  8.7457  5.7686  4.2869  3.0876  3.0876  2.4154  2.4154  1.9511  1.9511
  1.5002  1.0697  1.0288  0.9718  0.9718  0.9375  0.9375  0.8500  0.7258  0.7279
  0.5930  0.6123  0.6265  0.6363

 Free energy of the ion-electron system (eV)
  ---------------------------------------------------
  -Hartree energ DENC   =        -1.21662403
  -V(xc)+E(xc)   XCENC  =         0.01918119
  PAW double counting   =         0.04091103       -0.04041254
  entropy T*S    EENTRO =         0.00000000
  eigenvalues    EBANDS =        -0.37192335
  ---------------------------------------------------
  free energy    TOTEN  =        -1.56886771 eV

  energy without entropy =       -1.56886771


------------------------ aborting loop because EDIFF is reached ----------------------------------------


 change of polarisation eV/A/(eV/A) component  3 :    -0.006     0.004     3.077
 dielectric tensor                  component  3 :    -0.002     0.001     2.020


--------------------------------------------------------------------------------------------------------


    FORLOC:  cpu time    0.0040: real time    0.0044
    FORNL :  cpu time    1.5248: real time    1.5245
    STRESS:  cpu time    4.0274: real time    4.0317
    FORCOR:  cpu time    0.0390: real time    0.0404
    OFIELD:  cpu time    0.0000: real time    0.0003

  Hirshfeld charges:
            ion         q(e)     
   ------------------------------
      1     W           0.216
      2     W           0.215
      3     W           0.215
      4     W           0.216
      5     Te         -0.108
      6     Te         -0.108
      7     Te         -0.107
      8     Te         -0.107
      9     Te         -0.107
     10     Te         -0.107
     11     Te         -0.108
     12     Te         -0.108

  Tkatchenko/Scheffler method for vdW energy calculation
  ---------------------------------------------------------------------------------------------

  Parameters of vdW forcefield:
            C6ts              R0ts           ALPHAts        RELVOL
            (au)              (au)            (au)                
   ---------------------------------------------------------------
   W         919.816          4.138         73.991          1.042
   W         923.354          4.140         74.133          1.044
   W         923.354          4.140         74.133          1.044
   W         919.816          4.138         73.991          1.042
   Te        408.975          4.237         38.262          1.016
   Te        401.508          4.224         37.911          1.007
   Te        408.996          4.237         38.263          1.016
   Te        408.968          4.237         38.261          1.016
   Te        408.969          4.237         38.261          1.016
   Te        408.995          4.237         38.263          1.016
   Te        401.509          4.224         37.911          1.007
   Te        408.975          4.237         38.262          1.016
  Edisp (eV):   -3.71682
    FORVDW:  cpu time    0.4399: real time    0.4408
    FORLOC:  cpu time    0.0040: real time    0.0044
    FORNL :  cpu time    1.5238: real time    1.5245
    STRESS:  cpu time    4.0344: real time    4.0381
    FORCOR:  cpu time    0.0390: real time    0.0383
    OFIELD:  cpu time    0.0000: real time    0.0003

  Hirshfeld charges:
            ion         q(e)     
   ------------------------------
      1     W           0.216
      2     W           0.215
      3     W           0.215
      4     W           0.216
      5     Te         -0.108
      6     Te         -0.108
      7     Te         -0.107
      8     Te         -0.107
      9     Te         -0.107
     10     Te         -0.107
     11     Te         -0.108
     12     Te         -0.108

  Tkatchenko/Scheffler method for vdW energy calculation
  ---------------------------------------------------------------------------------------------

  Parameters of vdW forcefield:
            C6ts              R0ts           ALPHAts        RELVOL
            (au)              (au)            (au)                
   ---------------------------------------------------------------
   W         919.816          4.138         73.991          1.042
   W         923.354          4.140         74.133          1.044
   W         923.354          4.140         74.133          1.044
   W         919.816          4.138         73.991          1.042
   Te        408.975          4.237         38.262          1.016
   Te        401.509          4.224         37.911          1.007
   Te        408.995          4.237         38.263          1.016
   Te        408.969          4.237         38.261          1.016
   Te        408.968          4.237         38.261          1.016
   Te        408.996          4.237         38.263          1.016
   Te        401.508          4.224         37.911          1.007
   Te        408.975          4.237         38.262          1.016
  Edisp (eV):   -3.71682
    FORVDW:  cpu time    0.4529: real time    0.4549
    FORNLD:  cpu time    3.6234: real time    3.6282

 PIEZOELECTRIC TENSOR FIELD DIRECTION 3  (e Angst)
 -----------------------------------------------------------------------------
     0.24998  0.00000  0.00000           ( -0.00000  0.00000 -0.00000)
    -0.00000  0.24998  0.00000           ( -0.00000 -0.00000  0.00000)
     0.00000 -0.00000  0.81277           (  0.00000  0.00000  0.00000)

 PIEZOELECTRIC TENSOR FIELD DIRECTION 3  (C/m^2)
 -----------------------------------------------------------------------------
     0.00734  0.00000  0.00000
    -0.00000  0.00734  0.00000
     0.00000 -0.00000  0.02386


      POSITION         DIRECTION 3           BORN EFFECTIVE CHARGE    (rigid.aug.   ionic)
 -----------------------------------------------------------------------------------------
     -0.00000      1.02482     14.41000    -0.00000  0.00000-42.08829 (  1.94634 14.00000)
      1.77504      2.04964     21.47000     0.00000  0.00000 -6.06022 (  1.94640 14.00000)
     -0.00000      1.02482     28.53000     0.00000 -0.00000 -6.10176 (  1.94640 14.00000)
      1.77504      2.04964     35.59000     0.00000 -0.00000-41.99463 (  1.94634 14.00000)
      1.77504      2.04964     16.22196    -0.00000  0.00000 -1.54451 (  1.18311  6.00000)
      1.77504      2.04964     12.59804    -0.00000  0.00000  6.23541 (  1.18266  6.00000)
     -0.00000      1.02482     23.28196     0.00000  0.00000  0.37764 (  1.18311  6.00000)
     -0.00000      1.02482     19.65804     0.00000 -0.00000  0.16920 (  1.18307  6.00000)
      1.77504      2.04964     30.34196    -0.00000  0.00000  0.14463 (  1.18307  6.00000)
      1.77504      2.04964     26.71804    -0.00000  0.00000  0.39347 (  1.18311  6.00000)
     -0.00000      1.02482     37.40196    -0.00000 -0.00000  6.26851 (  1.18266  6.00000)
     -0.00000      1.02482     33.77804    -0.00000  0.00000 -1.51006 (  1.18311  6.00000)
 -----------------------------------------------------------------------------------------
    total drift (improves with k-points):  -0.00000  0.00000-85.71060




--------------------------------------------------------------------------------------------------------


  LATTYP: Found a hexagonal cell.
 ALAT       =     3.5500762221
 C/A-ratio  =    14.0842046402
  
  Lattice vectors:
  
 A1 = (   3.5500762221,   0.0000000000,   0.0000000000)
 A2 = (  -1.7750381110,   3.0744561937,   0.0000000000)
 A3 = (   0.0000000000,   0.0000000000,  50.0000000000)


Analysis of symmetry for initial positions (statically):
=====================================================================
 Subroutine PRICEL returns:
 Original cell was already a primitive cell.
 

 Routine SETGRP: Setting up the symmetry group for a 
 hexagonal supercell.


 Subroutine GETGRP returns: Found 12 space group operations
 (whereof  4 operations were pure point group operations)
 out of a pool of 24 trial point group operations.


The static configuration has the point symmetry C_2h.
 The point group associated with its full space group is D_3d.


Analysis of symmetry for dynamics (positions and initial velocities):
=====================================================================
 Subroutine PRICEL returns:
 Original cell was already a primitive cell.
 

 Routine SETGRP: Setting up the symmetry group for a 
 hexagonal supercell.


 Subroutine GETGRP returns: Found 12 space group operations
 (whereof  4 operations were pure point group operations)
 out of a pool of 24 trial point group operations.


The dynamic configuration has the point symmetry C_2h.
 The point group associated with its full space group is D_3d.


 Subroutine INISYM returns: Found 12 space group operations
 (whereof  4 operations are pure point group operations),
 and found     1 'primitive' translations



 MACROSCOPIC STATIC DIELECTRIC TENSOR (including local field effects in DFT)
 ------------------------------------------------------
          11.004026     0.000000     0.000000
          -0.000000    11.004026    -0.000000
           0.000000     0.000000     2.020209
 ------------------------------------------------------



--------------------------------------------------------------------------------------------------------


  LATTYP: Found a hexagonal cell.
 ALAT       =     3.5500762221
 C/A-ratio  =    14.0842046402
  
  Lattice vectors:
  
 A1 = (   3.5500762221,   0.0000000000,   0.0000000000)
 A2 = (  -1.7750381110,   3.0744561937,   0.0000000000)
 A3 = (   0.0000000000,   0.0000000000,  50.0000000000)


Analysis of symmetry for initial positions (statically):
=====================================================================
 Subroutine PRICEL returns:
 Original cell was already a primitive cell.
 

 Routine SETGRP: Setting up the symmetry group for a 
 hexagonal supercell.


 Subroutine GETGRP returns: Found 12 space group operations
 (whereof  4 operations were pure point group operations)
 out of a pool of 24 trial point group operations.


The static configuration has the point symmetry C_2h.
 The point group associated with its full space group is D_3d.


Analysis of symmetry for dynamics (positions and initial velocities):
=====================================================================
 Subroutine PRICEL returns:
 Original cell was already a primitive cell.
 

 Routine SETGRP: Setting up the symmetry group for a 
 hexagonal supercell.


 Subroutine GETGRP returns: Found 12 space group operations
 (whereof  4 operations were pure point group operations)
 out of a pool of 24 trial point group operations.


The dynamic configuration has the point symmetry C_2h.
 The point group associated with its full space group is D_3d.


 Subroutine INISYM returns: Found 12 space group operations
 (whereof  4 operations are pure point group operations),
 and found     1 'primitive' translations



--------------------------------------------------------------------------------------------------------




 MACROSCOPIC STATIC DIELECTRIC TENSOR (including local field effects in DFT)
 ------------------------------------------------------
          11.004026     0.000000     0.000000
          -0.000000    11.004026    -0.000000
           0.000000     0.000000     2.020209
 ------------------------------------------------------


 PIEZOELECTRIC TENSOR  for field in x, y, z        (e  Angst)
          XX          YY          ZZ          XY          YZ          ZX
  --------------------------------------------------------------------------------
  x    -0.00858     0.01359    -0.00150     0.00000     0.00038     0.00000
  y    -0.01405     0.02479     0.00846     0.00000     0.00049     0.00000
  z     0.24998     0.24998     0.81277    -0.00000    -0.00000     0.00000

 PIEZOELECTRIC TENSOR  for field in x, y, z        (C/m^2)
          XX          YY          ZZ          XY          YZ          ZX
  --------------------------------------------------------------------------------
  x     0.00000     0.00000     0.00000     0.00000     0.00000     0.00000
  y     0.00000     0.00000     0.00000     0.00000     0.00000     0.00000
  z     0.00000     0.00000     0.00000     0.00000     0.00000     0.00000
 
 BORN EFFECTIVE CHARGES (in e, cummulative output)
 -------------------------------------------------
 ion    1
    1    -2.54428    -0.00052     0.00003
    2    -0.00000    -2.54515    -0.00007
    3    -0.00000     0.00000   -42.08829
 ion    2
    1    -2.54585     0.00050    -0.00000
    2     0.00000    -2.54486    -0.00001
    3     0.00000     0.00000    -6.06022
 ion    3
    1    -2.54585    -0.00050     0.00000
    2    -0.00000    -2.54682     0.00000
    3     0.00000    -0.00000    -6.10176
 ion    4
    1    -2.54428     0.00052    -0.00003
    2    -0.00000    -2.54340     0.00017
    3     0.00000    -0.00000   -41.99463
 ion    5
    1     1.28190    -0.00182     0.00022
    2     0.00000     1.28235     0.00219
    3    -0.00000     0.00000    -1.54451
 ion    6
    1     1.28011    -0.00170    -0.00010
    2     0.00000     1.28051    -0.00138
    3    -0.00000     0.00000     6.23541
 ion    7
    1     1.28218     0.00183     0.00022
    2     0.00000     1.28170     0.00209
    3     0.00000     0.00000     0.37764
 ion    8
    1     1.28365     0.00185    -0.00022
    2     0.00000     1.28318    -0.00209
    3     0.00000    -0.00000     0.16920
 ion    9
    1     1.28365    -0.00185     0.00022
    2     0.00000     1.28411     0.00210
    3    -0.00000     0.00000     0.14463
 ion   10
    1     1.28218    -0.00183    -0.00022
    2     0.00000     1.28265    -0.00210
    3    -0.00000     0.00000     0.39347
 ion   11
    1     1.28011     0.00170     0.00010
    2    -0.00000     1.27970     0.00137
    3    -0.00000    -0.00000     6.26851
 ion   12
    1     1.28190     0.00182    -0.00022
    2     0.00000     1.28145    -0.00218
    3    -0.00000     0.00000    -1.51006


--------------------------------------------------------------------------------------------------------


 writing wavefunctions
     LOOP+:  cpu time 2184.1240: real time 2190.2188
    4ORBIT:  cpu time    0.0000: real time    0.0000
 BZINTS: Fermi energy:  2.476554;104.000000 electrons
         Band energy:***********;  BLOECHL correction:  0.000000

 total amount of memory used by VASP on root node   165796. kBytes
========================================================================

   base      :      30000. kBytes
   nonl-proj :     109960. kBytes
   fftplans  :       2517. kBytes
   grid      :       9951. kBytes
   one-center:        389. kBytes
   wavefun   :      12979. kBytes
 
  
  
 General timing and accounting informations for this job:
 ========================================================
  
                  Total CPU time used (sec):     2187.620
                            User time (sec):     2146.562
                          System time (sec):       41.059
                         Elapsed time (sec):     2195.193
  
                   Maximum memory used (kb):      525648.
                   Average memory used (kb):           0.
  
                          Minor page faults:      8689207
                          Major page faults:            9
                 Voluntary context switches:         6190
