   6   6   0   0
  0.7949972E+02  0.3319007E-09  0.3319007E-09  0.5000000E-08  0.5000000E-15
  1.000000000000000E-004
  CAR 
 unknown system                          
     13.43851687    -80.57047647  301     -1.83794455      1.00000000
    -80.570  0.0000E+00  0.0000E+00
    -80.257  0.0000E+00  0.0000E+00
    -79.944  0.0000E+00  0.0000E+00
    -79.630  0.0000E+00  0.0000E+00
    -79.317  0.0000E+00  0.0000E+00
    -79.004  0.0000E+00  0.0000E+00
    -78.690  0.0000E+00  0.0000E+00
    -78.377  0.0000E+00  0.0000E+00
    -78.064  0.0000E+00  0.0000E+00
    -77.750  0.0000E+00  0.0000E+00
    -77.437  0.0000E+00  0.0000E+00
    -77.123  0.0000E+00  0.0000E+00
    -76.810  0.0000E+00  0.0000E+00
    -76.497  0.0000E+00  0.0000E+00
    -76.183  0.0000E+00  0.4000E+01
    -75.870  0.0000E+00  0.4000E+01
    -75.557  0.0000E+00  0.4000E+01
    -75.243  0.0000E+00  0.4000E+01
    -74.930  0.0000E+00  0.4000E+01
    -74.617  0.0000E+00  0.4000E+01
    -74.303  0.0000E+00  0.4000E+01
    -73.990  0.0000E+00  0.4000E+01
    -73.676  0.0000E+00  0.4000E+01
    -73.363  0.0000E+00  0.4000E+01
    -73.050  0.0000E+00  0.4000E+01
    -72.736  0.0000E+00  0.4000E+01
    -72.423  0.0000E+00  0.4000E+01
    -72.110  0.0000E+00  0.4000E+01
    -71.796  0.0000E+00  0.4000E+01
    -71.483  0.0000E+00  0.4000E+01
    -71.170  0.0000E+00  0.4000E+01
    -70.856  0.0000E+00  0.4000E+01
    -70.543  0.0000E+00  0.4000E+01
    -70.229  0.0000E+00  0.4000E+01
    -69.916  0.0000E+00  0.4000E+01
    -69.603  0.0000E+00  0.4000E+01
    -69.289  0.0000E+00  0.4000E+01
    -68.976  0.0000E+00  0.4000E+01
    -68.663  0.0000E+00  0.4000E+01
    -68.349  0.0000E+00  0.4000E+01
    -68.036  0.0000E+00  0.4000E+01
    -67.723  0.0000E+00  0.4000E+01
    -67.409  0.0000E+00  0.4000E+01
    -67.096  0.0000E+00  0.4000E+01
    -66.782  0.0000E+00  0.4000E+01
    -66.469  0.0000E+00  0.4000E+01
    -66.156  0.0000E+00  0.4000E+01
    -65.842  0.0000E+00  0.4000E+01
    -65.529  0.0000E+00  0.4000E+01
    -65.216  0.0000E+00  0.4000E+01
    -64.902  0.0000E+00  0.4000E+01
    -64.589  0.0000E+00  0.4000E+01
    -64.276  0.0000E+00  0.4000E+01
    -63.962  0.0000E+00  0.4000E+01
    -63.649  0.0000E+00  0.4000E+01
    -63.335  0.0000E+00  0.4000E+01
    -63.022  0.0000E+00  0.4000E+01
    -62.709  0.0000E+00  0.4000E+01
    -62.395  0.0000E+00  0.4000E+01
    -62.082  0.0000E+00  0.4000E+01
    -61.769  0.0000E+00  0.4000E+01
    -61.455  0.0000E+00  0.4000E+01
    -61.142  0.0000E+00  0.4000E+01
    -60.829  0.0000E+00  0.4000E+01
    -60.515  0.0000E+00  0.4000E+01
    -60.202  0.0000E+00  0.4000E+01
    -59.888  0.0000E+00  0.4000E+01
    -59.575  0.0000E+00  0.4000E+01
    -59.262  0.0000E+00  0.4000E+01
    -58.948  0.0000E+00  0.4000E+01
    -58.635  0.0000E+00  0.4000E+01
    -58.322  0.0000E+00  0.4000E+01
    -58.008  0.0000E+00  0.4000E+01
    -57.695  0.0000E+00  0.4000E+01
    -57.382  0.0000E+00  0.4000E+01
    -57.068  0.0000E+00  0.4000E+01
    -56.755  0.0000E+00  0.4000E+01
    -56.442  0.0000E+00  0.4000E+01
    -56.128  0.0000E+00  0.4000E+01
    -55.815  0.0000E+00  0.4000E+01
    -55.501  0.0000E+00  0.4000E+01
    -55.188  0.0000E+00  0.4000E+01
    -54.875  0.0000E+00  0.4000E+01
    -54.561  0.0000E+00  0.4000E+01
    -54.248  0.0000E+00  0.4000E+01
    -53.935  0.0000E+00  0.4000E+01
    -53.621  0.0000E+00  0.4000E+01
    -53.308  0.0000E+00  0.4000E+01
    -52.995  0.0000E+00  0.4000E+01
    -52.681  0.0000E+00  0.4000E+01
    -52.368  0.0000E+00  0.4000E+01
    -52.054  0.0000E+00  0.4000E+01
    -51.741  0.0000E+00  0.4000E+01
    -51.428  0.0000E+00  0.4000E+01
    -51.114  0.0000E+00  0.4000E+01
    -50.801  0.0000E+00  0.4000E+01
    -50.488  0.0000E+00  0.4000E+01
    -50.174  0.0000E+00  0.4000E+01
    -49.861  0.0000E+00  0.4000E+01
    -49.548  0.0000E+00  0.4000E+01
    -49.234  0.0000E+00  0.4000E+01
    -48.921  0.0000E+00  0.4000E+01
    -48.607  0.0000E+00  0.4000E+01
    -48.294  0.0000E+00  0.4000E+01
    -47.981  0.0000E+00  0.4000E+01
    -47.667  0.0000E+00  0.4000E+01
    -47.354  0.0000E+00  0.4000E+01
    -47.041  0.0000E+00  0.4000E+01
    -46.727  0.0000E+00  0.4000E+01
    -46.414  0.0000E+00  0.4000E+01
    -46.101  0.0000E+00  0.4000E+01
    -45.787  0.0000E+00  0.4000E+01
    -45.474  0.0000E+00  0.4000E+01
    -45.160  0.0000E+00  0.4000E+01
    -44.847  0.0000E+00  0.4000E+01
    -44.534  0.0000E+00  0.4000E+01
    -44.220  0.0000E+00  0.4000E+01
    -43.907  0.0000E+00  0.4000E+01
    -43.594  0.0000E+00  0.4000E+01
    -43.280  0.0000E+00  0.4000E+01
    -42.967  0.0000E+00  0.4000E+01
    -42.654  0.0000E+00  0.4000E+01
    -42.340  0.0000E+00  0.4000E+01
    -42.027  0.0000E+00  0.4000E+01
    -41.713  0.0000E+00  0.4000E+01
    -41.400  0.0000E+00  0.4000E+01
    -41.087  0.0000E+00  0.4000E+01
    -40.773  0.0000E+00  0.4000E+01
    -40.460  0.9805E+02  0.1292E+02
    -40.147  0.0000E+00  0.1600E+02
    -39.833  0.0000E+00  0.1600E+02
    -39.520  0.0000E+00  0.1600E+02
    -39.207  0.0000E+00  0.1600E+02
    -38.893  0.0000E+00  0.1600E+02
    -38.580  0.0000E+00  0.1600E+02
    -38.266  0.0000E+00  0.1600E+02
    -37.953  0.0000E+00  0.1600E+02
    -37.640  0.0000E+00  0.1600E+02
    -37.326  0.0000E+00  0.1600E+02
    -37.013  0.0000E+00  0.1600E+02
    -36.700  0.0000E+00  0.1600E+02
    -36.386  0.0000E+00  0.1600E+02
    -36.073  0.0000E+00  0.1600E+02
    -35.760  0.0000E+00  0.1600E+02
    -35.446  0.0000E+00  0.1600E+02
    -35.133  0.0000E+00  0.1600E+02
    -34.819  0.0000E+00  0.1600E+02
    -34.506  0.0000E+00  0.1600E+02
    -34.193  0.0000E+00  0.1600E+02
    -33.879  0.0000E+00  0.1600E+02
    -33.566  0.0000E+00  0.1600E+02
    -33.253  0.0000E+00  0.1600E+02
    -32.939  0.0000E+00  0.1600E+02
    -32.626  0.0000E+00  0.1600E+02
    -32.313  0.0000E+00  0.1600E+02
    -31.999  0.0000E+00  0.1600E+02
    -31.686  0.0000E+00  0.1600E+02
    -31.372  0.0000E+00  0.1600E+02
    -31.059  0.0000E+00  0.1600E+02
    -30.746  0.0000E+00  0.1600E+02
    -30.432  0.0000E+00  0.1600E+02
    -30.119  0.0000E+00  0.1600E+02
    -29.806  0.0000E+00  0.1600E+02
    -29.492  0.0000E+00  0.1600E+02
    -29.179  0.0000E+00  0.1600E+02
    -28.866  0.0000E+00  0.1600E+02
    -28.552  0.0000E+00  0.1600E+02
    -28.239  0.0000E+00  0.1600E+02
    -27.925  0.0000E+00  0.1600E+02
    -27.612  0.0000E+00  0.1600E+02
    -27.299  0.0000E+00  0.1600E+02
    -26.985  0.0000E+00  0.1600E+02
    -26.672  0.0000E+00  0.1600E+02
    -26.359  0.0000E+00  0.1600E+02
    -26.045  0.0000E+00  0.1600E+02
    -25.732  0.0000E+00  0.1600E+02
    -25.419  0.0000E+00  0.1600E+02
    -25.105  0.0000E+00  0.1600E+02
    -24.792  0.0000E+00  0.1600E+02
    -24.478  0.0000E+00  0.1600E+02
    -24.165  0.0000E+00  0.1600E+02
    -23.852  0.0000E+00  0.1600E+02
    -23.538  0.0000E+00  0.1600E+02
    -23.225  0.0000E+00  0.1600E+02
    -22.912  0.0000E+00  0.1600E+02
    -22.598  0.0000E+00  0.1600E+02
    -22.285  0.0000E+00  0.1600E+02
    -21.972  0.0000E+00  0.1600E+02
    -21.658  0.0000E+00  0.1600E+02
    -21.345  0.0000E+00  0.1600E+02
    -21.031  0.0000E+00  0.1600E+02
    -20.718  0.0000E+00  0.1600E+02
    -20.405  0.0000E+00  0.1600E+02
    -20.091  0.0000E+00  0.1600E+02
    -19.778  0.0000E+00  0.1600E+02
    -19.465  0.0000E+00  0.1600E+02
    -19.151  0.0000E+00  0.1600E+02
    -18.838  0.0000E+00  0.1600E+02
    -18.525  0.0000E+00  0.1600E+02
    -18.211  0.0000E+00  0.1600E+02
    -17.898  0.0000E+00  0.1600E+02
    -17.584  0.0000E+00  0.1600E+02
    -17.271  0.0000E+00  0.1600E+02
    -16.958  0.4171E+00  0.1600E+02
    -16.644  0.1033E+01  0.1627E+02
    -16.331  0.1160E+01  0.1661E+02
    -16.018  0.1289E+01  0.1699E+02
    -15.704  0.2531E+01  0.1750E+02
    -15.391  0.4205E+01  0.1855E+02
    -15.078  0.6538E+01  0.2015E+02
    -14.764  0.1105E+02  0.2273E+02
    -14.451  0.0000E+00  0.2400E+02
    -14.137  0.0000E+00  0.2400E+02
    -13.824  0.0000E+00  0.2400E+02
    -13.511  0.0000E+00  0.2400E+02
    -13.197  0.0000E+00  0.2400E+02
    -12.884  0.0000E+00  0.2400E+02
    -12.571  0.0000E+00  0.2400E+02
    -12.257  0.0000E+00  0.2400E+02
    -11.944  0.0000E+00  0.2400E+02
    -11.631  0.0000E+00  0.2400E+02
    -11.317  0.0000E+00  0.2400E+02
    -11.004  0.0000E+00  0.2400E+02
    -10.690  0.0000E+00  0.2400E+02
    -10.377  0.0000E+00  0.2400E+02
    -10.064  0.0000E+00  0.2400E+02
     -9.750  0.0000E+00  0.2400E+02
     -9.437  0.0000E+00  0.2400E+02
     -9.124  0.0000E+00  0.2400E+02
     -8.810  0.0000E+00  0.2400E+02
     -8.497  0.1405E+01  0.2408E+02
     -8.184  0.2321E+01  0.2467E+02
     -7.870  0.3394E+01  0.2556E+02
     -7.557  0.4086E+01  0.2700E+02
     -7.243  0.5776E+01  0.2851E+02
     -6.930  0.3640E+01  0.2981E+02
     -6.617  0.2507E+01  0.3063E+02
     -6.303  0.2980E+01  0.3247E+02
     -5.990  0.2382E+01  0.3426E+02
     -5.677  0.4133E+01  0.3514E+02
     -5.363  0.8173E+01  0.3673E+02
     -5.050  0.4478E+01  0.3870E+02
     -4.737  0.2945E+01  0.3980E+02
     -4.423  0.7479E+01  0.4098E+02
     -4.110  0.7194E+01  0.4354E+02
     -3.796  0.6059E+01  0.4566E+02
     -3.483  0.4930E+01  0.4721E+02
     -3.170  0.3017E+01  0.4830E+02
     -2.856  0.5564E+01  0.5012E+02
     -2.543  0.2313E+01  0.5143E+02
     -2.230  0.8661E+00  0.5192E+02
     -1.916  0.0000E+00  0.5200E+02
     -1.603  0.0000E+00  0.5200E+02
     -1.290  0.0000E+00  0.5200E+02
     -0.976  0.0000E+00  0.5200E+02
     -0.663  0.1495E+01  0.5210E+02
     -0.349  0.5709E+01  0.5302E+02
     -0.036  0.7831E+01  0.5456E+02
      0.277  0.8365E+01  0.5736E+02
      0.591  0.7789E+01  0.6050E+02
      0.904  0.7650E+01  0.6215E+02
      1.217  0.3918E+01  0.6360E+02
      1.531  0.2219E+01  0.6439E+02
      1.844  0.8376E+01  0.6567E+02
      2.157  0.7734E+01  0.6689E+02
      2.471  0.3263E+01  0.6801E+02
      2.784  0.1640E+01  0.6871E+02
      3.098  0.3001E+01  0.6948E+02
      3.411  0.4063E+01  0.7059E+02
      3.724  0.4954E+01  0.7209E+02
      4.038  0.3988E+01  0.7353E+02
      4.351  0.5679E+01  0.7506E+02
      4.664  0.6341E+01  0.7689E+02
      4.978  0.6631E+01  0.7900E+02
      5.291  0.6265E+01  0.8101E+02
      5.604  0.6791E+01  0.8306E+02
      5.918  0.6022E+01  0.8504E+02
      6.231  0.7903E+01  0.8752E+02
      6.545  0.1040E+02  0.9070E+02
      6.858  0.9258E+01  0.9374E+02
      7.171  0.1004E+02  0.9684E+02
      7.485  0.7274E+01  0.9975E+02
      7.798  0.1118E+02  0.1030E+03
      8.111  0.8128E+01  0.1058E+03
      8.425  0.7034E+01  0.1085E+03
      8.738  0.4808E+01  0.1106E+03
      9.051  0.2876E+01  0.1117E+03
      9.365  0.0000E+00  0.1120E+03
      9.678  0.0000E+00  0.1120E+03
      9.992  0.0000E+00  0.1120E+03
     10.305  0.0000E+00  0.1120E+03
     10.618  0.0000E+00  0.1120E+03
     10.932  0.0000E+00  0.1120E+03
     11.245  0.0000E+00  0.1120E+03
     11.558  0.0000E+00  0.1120E+03
     11.872  0.0000E+00  0.1120E+03
     12.185  0.0000E+00  0.1120E+03
     12.498  0.0000E+00  0.1120E+03
     12.812  0.0000E+00  0.1120E+03
     13.125  0.0000E+00  0.1120E+03
     13.439  0.0000E+00  0.1120E+03
