       N       E                     dE             d eps       ncg     rms          rms(c)
DAV:   1     0.227970719263E+03    0.22797E+03   -0.21062E+04  5908   0.485E+02
DAV:   2    -0.423419455003E+02   -0.27031E+03   -0.26041E+03  7112   0.151E+02
DAV:   3    -0.517470764499E+02   -0.94051E+01   -0.92994E+01  4732   0.300E+01
DAV:   4    -0.518881012713E+02   -0.14102E+00   -0.14089E+00  6384   0.343E+00
DAV:   5    -0.518899478259E+02   -0.18466E-02   -0.18465E-02  5180   0.337E-01    0.108E+02
DAV:   6    -0.480568085717E+02    0.38331E+01   -0.14402E+01  4312   0.114E+01    0.101E+02
DAV:   7    -0.530668143471E+02   -0.50100E+01   -0.23822E+01  5376   0.146E+01    0.666E+01
DAV:   8    -0.472404546541E+02    0.58264E+01   -0.12328E+01  5432   0.103E+01    0.988E-01
DAV:   9    -0.473167594875E+02   -0.76305E-01   -0.80001E-01  5040   0.224E+00    0.357E+00
DAV:  10    -0.473164307782E+02    0.32871E-03   -0.70736E-03  5768   0.265E-01    0.850E-01
DAV:  11    -0.473136542206E+02    0.27766E-02   -0.43051E-03  5880   0.231E-01    0.238E-01
DAV:  12    -0.473135095499E+02    0.14467E-03   -0.52429E-04  6020   0.613E-02    0.118E-01
DAV:  13    -0.473134288384E+02    0.80711E-04   -0.12690E-04  6104   0.343E-02    0.286E-02
DAV:  14    -0.473134283866E+02    0.45188E-06   -0.20797E-05  5628   0.130E-02    0.113E-02
DAV:  15    -0.473134957355E+02   -0.67349E-04   -0.17243E-05  5180   0.109E-02    0.390E-02
DAV:  16    -0.473135955928E+02   -0.99857E-04   -0.15971E-05  5068   0.956E-03    0.605E-02
DAV:  17    -0.473136655213E+02   -0.69928E-04   -0.19063E-06  4872   0.403E-03    0.791E-03
DAV:  18    -0.473137218245E+02   -0.56303E-04   -0.12925E-06  4872   0.303E-03    0.219E-02
DAV:  19    -0.473137417432E+02   -0.19919E-04   -0.16121E-07  5600   0.110E-03    0.110E-03
DAV:  20    -0.473137697580E+02   -0.28015E-04   -0.28530E-07  4760   0.115E-03    0.606E-03
DAV:  21    -0.473137793059E+02   -0.95479E-05   -0.14477E-07  4844   0.790E-04    0.546E-04
DAV:  22    -0.473137844766E+02   -0.51707E-05   -0.39635E-08  4984   0.488E-04    0.166E-03
DAV:  23    -0.473137871413E+02   -0.26647E-05   -0.14900E-08  4788   0.349E-04    0.439E-04
DAV:  24    -0.473137883599E+02   -0.12186E-05   -0.51831E-09  4312   0.225E-04    0.385E-04
DAV:  25    -0.473137889470E+02   -0.58708E-06   -0.14257E-09  4116   0.141E-04    0.151E-04
DAV:  26    -0.473137892665E+02   -0.31948E-06   -0.37061E-10  3976   0.909E-05    0.209E-05
DAV:  27    -0.473137894456E+02   -0.17915E-06   -0.17212E-10  3780   0.682E-05    0.220E-05
DAV:  28    -0.473137894868E+02   -0.41169E-07    0.13075E-11  3864   0.257E-05    0.304E-05
DAV:  29    -0.473137895087E+02   -0.21962E-07   -0.18428E-12  3444   0.226E-05    0.252E-05
DAV:  30    -0.473137895116E+02   -0.28404E-08    0.30622E-11  4284   0.815E-06
   1 F= -.48821206E+02 E0= -.48821206E+02  d E =0.000000E+00
 Linear response reoptimize wavefunctions
DAV:   1    -0.473137895130E+02    0.15074E+01    0.33294E-11  3444   0.811E-06
DAV:   2    -0.473137895130E+02   -0.72760E-11    0.41735E-11  4928   0.128E-06
 Linear response G [H, r] |phi>, progress :
  Direction:   1
       N       E                     dE             d eps       ncg     rms
RMM:   1    -0.244221076048E+03   -0.24422E+03    0.92443E+02 10553   0.884E+01
RMM:   2    -0.233249568146E+03    0.10972E+02   -0.59866E+01  8996   0.187E+01
RMM:   3    -0.233883587237E+03   -0.63402E+00   -0.21705E+00  9573   0.364E+00
RMM:   4    -0.233914041396E+03   -0.30454E-01   -0.89355E-02 10155   0.644E-01
RMM:   5    -0.233914756487E+03   -0.71509E-03   -0.52212E-03 10197   0.154E-01
RMM:   6    -0.233914827043E+03   -0.70557E-04   -0.39990E-04 10694   0.354E-02
RMM:   7    -0.233914852259E+03   -0.25215E-04   -0.38342E-04 10708   0.108E-02
RMM:   8    -0.233914802793E+03    0.49465E-04    0.13134E-04 11263   0.413E-03
RMM:   9    -0.233914830292E+03   -0.27499E-04   -0.14241E-04 11150   0.266E-03
RMM:  10    -0.233914824217E+03    0.60758E-05   -0.81544E-05 10753   0.235E-03
RMM:  11    -0.233914839341E+03   -0.15125E-04   -0.23279E-04 10312   0.231E-03
RMM:  12    -0.233914846801E+03   -0.74593E-05   -0.30738E-04 10095   0.231E-03
 Linear response G [H, r] |phi>, progress :
  Direction:   2
       N       E                     dE             d eps       ncg     rms
RMM:   1    -0.249553131107E+03   -0.24955E+03    0.81291E+02 10510   0.883E+01
RMM:   2    -0.246050540715E+03    0.35026E+01   -0.61626E+01  8787   0.185E+01
RMM:   3    -0.246435351012E+03   -0.38481E+00   -0.22412E+00  9512   0.353E+00
RMM:   4    -0.246458971637E+03   -0.23621E-01   -0.84725E-02 10120   0.625E-01
RMM:   5    -0.246459774957E+03   -0.80332E-03   -0.48267E-03 10190   0.147E-01
RMM:   6    -0.246459807531E+03   -0.32575E-04   -0.28549E-04 10666   0.352E-02
RMM:   7    -0.246459817370E+03   -0.98387E-05   -0.12027E-04 10689   0.103E-02
RMM:   8    -0.246459808151E+03    0.92195E-05   -0.86756E-06 11177   0.379E-03
RMM:   9    -0.246459815446E+03   -0.72949E-05   -0.80367E-05 11192   0.227E-03
RMM:  10    -0.246459816830E+03   -0.13844E-05   -0.94120E-05 10856   0.195E-03
RMM:  11    -0.246459815318E+03    0.15120E-05   -0.78993E-05 10376   0.192E-03
RMM:  12    -0.246459813281E+03    0.20372E-05   -0.58622E-05 10153   0.191E-03
 Linear response G [H, r] |phi>, progress :
  Direction:   3
       N       E                     dE             d eps       ncg     rms
RMM:   1    -0.255916114138E+03   -0.25592E+03    0.94400E+02 10459   0.905E+01
RMM:   2    -0.240327632280E+03    0.15588E+02   -0.66509E+01  8941   0.188E+01
RMM:   3    -0.240904605445E+03   -0.57697E+00   -0.29159E+00  9417   0.392E+00
RMM:   4    -0.240945473209E+03   -0.40868E-01   -0.10290E-01  9916   0.686E-01
RMM:   5    -0.240946306342E+03   -0.83313E-03   -0.59760E-03  9810   0.156E-01
RMM:   6    -0.240946399595E+03   -0.93253E-04   -0.27147E-04 10239   0.341E-02
RMM:   7    -0.240946402609E+03   -0.30136E-05   -0.19501E-05 10320   0.905E-03
RMM:   8    -0.240946402909E+03   -0.30057E-06   -0.13912E-06 10818   0.260E-03
RMM:   9    -0.240946402923E+03   -0.13826E-07   -0.35656E-07 10661   0.119E-03
RMM:  10    -0.240946402925E+03   -0.19723E-08   -0.29633E-07 10355   0.930E-04
RMM:  11    -0.240946402922E+03    0.29759E-08   -0.26265E-07  9887   0.900E-04
RMM:  12    -0.240946402923E+03   -0.68135E-09   -0.26945E-07  9666   0.898E-04
 Linear response to external field (no local field effect), progress :
  Direction:   1
       N       E                     dE             d eps       ncg     rms          rms(c)
RMM:   1    -0.422228384785E+01   -0.42223E+01   -0.26766E+01 11129   0.383E+00
RMM:   2    -0.520644897378E+01   -0.98417E+00   -0.15342E-01  8370   0.753E-01
RMM:   3    -0.520924663535E+01   -0.27977E-02   -0.11189E-02  8972   0.138E-01
RMM:   4    -0.520933619445E+01   -0.89559E-04   -0.44496E-04  9421   0.272E-02
RMM:   5    -0.520934166832E+01   -0.54739E-05   -0.21190E-05  9351   0.588E-03
RMM:   6    -0.520934189709E+01   -0.22877E-06   -0.76643E-07  8971   0.129E-03
RMM:   7    -0.520934190461E+01   -0.75230E-08   -0.46708E-08  8940   0.323E-04
 Linear response to external field (no local field effect), progress :
  Direction:   2
       N       E                     dE             d eps       ncg     rms          rms(c)
RMM:   1    -0.430966606906E+01   -0.43097E+01   -0.26731E+01 10960   0.390E+00
RMM:   2    -0.501261197667E+01   -0.70295E+00   -0.15189E-01  8440   0.795E-01
RMM:   3    -0.501530497766E+01   -0.26930E-02   -0.10247E-02  8956   0.149E-01
RMM:   4    -0.501538690173E+01   -0.81924E-04   -0.38488E-04  9433   0.281E-02
RMM:   5    -0.501539213499E+01   -0.52333E-05   -0.18995E-05  9306   0.606E-03
RMM:   6    -0.501539230878E+01   -0.17379E-06   -0.82936E-07  8973   0.135E-03
RMM:   7    -0.501539231949E+01   -0.10712E-07   -0.49336E-08  8985   0.333E-04
RMM:   8    -0.501539232009E+01   -0.59405E-09   -0.42477E-09  8467   0.880E-05
 Linear response to external field (no local field effect), progress :
  Direction:   3
       N       E                     dE             d eps       ncg     rms          rms(c)
RMM:   1    -0.272897494661E+01   -0.27290E+01   -0.13492E+01 11075   0.352E+00
RMM:   2    -0.298918348474E+01   -0.26021E+00   -0.83655E-02  8109   0.654E-01
RMM:   3    -0.299022925695E+01   -0.10458E-02   -0.42435E-03  8807   0.120E-01
RMM:   4    -0.299026864491E+01   -0.39388E-04   -0.15358E-04  9239   0.220E-02
RMM:   5    -0.299027104283E+01   -0.23979E-05   -0.76868E-06  9123   0.470E-03
RMM:   6    -0.299027116549E+01   -0.12267E-06   -0.42438E-07  8840   0.108E-03
RMM:   7    -0.299027117377E+01   -0.82779E-08   -0.26887E-08  8647   0.263E-04
 Linear response to external field, progress :
  Direction:   1
       N       E                     dE             d eps       ncg     rms          rms(c)
RMM:   1    -0.427151125388E+01   -0.42715E+01   -0.26804E+01 27052   0.383E+00
RMM:   2    -0.510952415321E+01   -0.83801E+00   -0.14989E-01 20603   0.760E-01    0.390E+00
RMM:   3    -0.497045438278E+01    0.13907E+00   -0.11530E-01 18991   0.104E+00    0.220E+00
RMM:   4    -0.507183044494E+01   -0.10138E+00   -0.99529E-02 18669   0.104E+00    0.554E-01
RMM:   5    -0.511022523277E+01   -0.38395E-01   -0.18649E-03 18571   0.183E-01    0.524E-02
RMM:   6    -0.511317353796E+01   -0.29483E-02   -0.10897E-03 21735   0.305E-02    0.303E-02
RMM:   7    -0.511446040920E+01   -0.12869E-02    0.10115E-03 20597   0.156E-02    0.109E-02
RMM:   8    -0.511550692968E+01   -0.10465E-02   -0.84752E-04 21264   0.464E-03    0.408E-03
RMM:   9    -0.511581601329E+01   -0.30908E-03    0.12622E-04 20049   0.311E-03    0.170E-03
RMM:  10    -0.511585043467E+01   -0.34421E-04    0.25442E-05 19725   0.893E-04    0.569E-04
RMM:  11    -0.511588521328E+01   -0.34779E-04   -0.24119E-05 20420   0.351E-04    0.165E-04
RMM:  12    -0.511588468410E+01    0.52918E-06    0.83888E-06 21161   0.755E-05    0.515E-05
RMM:  13    -0.511588615037E+01   -0.14663E-05    0.82977E-08 16950   0.365E-05    0.121E-05
RMM:  14    -0.511588607011E+01    0.80263E-07    0.31714E-07 12897   0.165E-05    0.735E-06
 Linear response to external field, progress :
  Direction:   2
       N       E                     dE             d eps       ncg     rms          rms(c)
RMM:   1    -0.427428439575E+01   -0.42743E+01   -0.26832E+01 27108   0.384E+00
RMM:   2    -0.510948199055E+01   -0.83520E+00   -0.15414E-01 20621   0.771E-01    0.390E+00
RMM:   3    -0.497102338177E+01    0.13846E+00   -0.11679E-01 19177   0.105E+00    0.220E+00
RMM:   4    -0.507243270289E+01   -0.10141E+00   -0.10428E-01 18815   0.104E+00    0.553E-01
RMM:   5    -0.510927438841E+01   -0.36842E-01    0.49383E-04 18885   0.180E-01    0.612E-02
RMM:   6    -0.511344472142E+01   -0.41703E-02   -0.48207E-03 21972   0.320E-02    0.369E-02
RMM:   7    -0.511372207588E+01   -0.27735E-03    0.21267E-03 21712   0.104E-02    0.192E-02
RMM:   8    -0.511545492391E+01   -0.17328E-02   -0.56694E-04 19736   0.101E-02    0.433E-03
RMM:   9    -0.511577327777E+01   -0.31835E-03    0.32798E-06 20583   0.327E-03    0.187E-03
RMM:  10    -0.511586170065E+01   -0.88423E-04   -0.26929E-05 20689   0.981E-04    0.881E-04
RMM:  11    -0.511587251708E+01   -0.10816E-04    0.33225E-05 19982   0.476E-04    0.266E-04
RMM:  12    -0.511588509446E+01   -0.12577E-04    0.76161E-06 20752   0.121E-04    0.121E-04
RMM:  13    -0.511588579773E+01   -0.70327E-06    0.55628E-06 19036   0.397E-05    0.401E-05
RMM:  14    -0.511588629469E+01   -0.49696E-06   -0.10249E-08 14211   0.227E-05    0.717E-06
 Linear response to external field, progress :
  Direction:   3
       N       E                     dE             d eps       ncg     rms          rms(c)
RMM:   1    -0.272897494662E+01   -0.27290E+01   -0.13492E+01 11075   0.352E+00
RMM:   2    -0.298918348474E+01   -0.26021E+00   -0.83655E-02  8109   0.654E-01    0.377E+00
RMM:   3    -0.710463238061E+00    0.22787E+01   -0.18301E+00  7967   0.232E+00    0.230E+00
RMM:   4    -0.478041611018E+00    0.23242E+00   -0.12285E-01  7586   0.712E-01    0.725E-01
RMM:   5    -0.430101131604E+00    0.47940E-01   -0.26572E-02  7893   0.303E-01    0.483E-01
RMM:   6    -0.397002379928E+00    0.33099E-01   -0.19402E-02  7192   0.267E-01    0.272E-01
RMM:   7    -0.388493512623E+00    0.85089E-02   -0.55809E-03  7103   0.126E-01    0.878E-02
RMM:   8    -0.386532587876E+00    0.19609E-02   -0.11955E-03  7237   0.535E-02    0.441E-02
RMM:   9    -0.386103235788E+00    0.42935E-03    0.10861E-04  6857   0.286E-02    0.298E-02
RMM:  10    -0.386322559711E+00   -0.21932E-03    0.43220E-04  6526   0.231E-02    0.749E-03
RMM:  11    -0.386644056167E+00   -0.32150E-03   -0.28072E-04  6944   0.113E-02    0.604E-03
RMM:  12    -0.386798173707E+00   -0.15412E-03   -0.28440E-04  7141   0.656E-03    0.504E-03
RMM:  13    -0.386849803247E+00   -0.51630E-04   -0.10355E-04  7120   0.402E-03    0.291E-03
RMM:  14    -0.386915275314E+00   -0.65472E-04   -0.10087E-04  6781   0.501E-03    0.118E-03
RMM:  15    -0.386917052234E+00   -0.17769E-05   -0.14031E-04  6808   0.396E-03    0.545E-04
RMM:  16    -0.386919464786E+00   -0.24126E-05   -0.14741E-04  7838   0.848E-04    0.355E-04
RMM:  17    -0.386906343250E+00    0.13122E-04   -0.15341E-04  7243   0.121E-03    0.155E-04
RMM:  18    -0.386905115157E+00    0.12281E-05   -0.14807E-04  7745   0.255E-04    0.144E-04
RMM:  19    -0.386903449120E+00    0.16660E-05   -0.15331E-04  6780   0.450E-04    0.509E-05
RMM:  20    -0.386902005137E+00    0.14440E-05   -0.14021E-04  7272   0.640E-05    0.334E-05
RMM:  21    -0.386903499407E+00   -0.14943E-05   -0.14849E-04  6415   0.148E-04    0.190E-05
RMM:  22    -0.386903476508E+00    0.22899E-07   -0.14832E-04  5497   0.215E-05    0.117E-05
RMM:  23    -0.386902926371E+00    0.55014E-06   -0.14171E-04  5912   0.525E-05    0.595E-06
