 vasp.5.4.1 24Jun15 (build Apr 13 2016 13:07:19) complex                        
  
 executed on           IFC91_ompi date 2019.09.13  23:43:02
 running on   28 total cores
 distrk:  each k-point on   28 cores,    1 groups
 distr:  one band on NCORES_PER_BAND=   1 cores,   28 groups


--------------------------------------------------------------------------------------------------------


 INCAR:
 POTCAR:    PAW_PBE W_sv_GW 23Mar2010             
 POTCAR:    PAW_PBE Se_GW 20Mar2012               

 ----------------------------------------------------------------------------- 
|                                                                             |
|           W    W    AA    RRRRR   N    N  II  N    N   GGGG   !!!           |
|           W    W   A  A   R    R  NN   N  II  NN   N  G    G  !!!           |
|           W    W  A    A  R    R  N N  N  II  N N  N  G       !!!           |
|           W WW W  AAAAAA  RRRRR   N  N N  II  N  N N  G  GGG   !            |
|           WW  WW  A    A  R   R   N   NN  II  N   NN  G    G                |
|           W    W  A    A  R    R  N    N  II  N    N   GGGG   !!!           |
|                                                                             |
|      For optimal performance we recommend to set                            |
|        NCORE= 4 - approx SQRT( number of cores)                             |
|      NCORE specifies how many cores store one orbital (NPAR=cpu/NCORE).     |
|      This setting can  greatly improve the performance of VASP for DFT.     |
|      The default, NPAR=number of cores might be grossly inefficient         |
|      on modern multi-core architectures or massively parallel machines.     |
|      Do your own testing !!!!                                               |
|      Unfortunately you need to use the default for GW and RPA calculations. |
|      (for HF NCORE is supported but not extensively tested yet)             |
|                                                                             |
 ----------------------------------------------------------------------------- 

 POTCAR:    PAW_PBE W_sv_GW 23Mar2010             
   VRHFIN =W: 5p6s5d                                                            
   LEXCH  = PE                                                                  
   EATOM  =  1863.8917 eV,  136.9922 Ry                                         
                                                                                
   TITEL  = PAW_PBE W_sv_GW 23Mar2010                                           
   LULTRA =        F    use ultrasoft PP ?                                      
   IUNSCR =        1    unscreen: 0-lin 1-nonlin 2-no                           
   RPACOR =    1.500    partial core radius                                     
   POMASS =  183.850; ZVAL   =   14.000    mass and valenz                      
   RCORE  =    2.300    outmost cutoff radius                                   
   RWIGS  =    2.600; RWIGS  =    1.376    wigner-seitz radius (au A)           
   ENMAX  =  317.132; ENMIN  =  237.849 eV                                      
   RCLOC  =    1.609    cutoff for local pot                                    
   LCOR   =        T    correct aug charges                                     
   LPAW   =        T    paw PP                                                  
   EAUG   =  807.757                                                            
   DEXC   =    0.000                                                            
   RMAX   =    2.349    core radius for proj-oper                               
   RAUG   =    1.300    factor for augmentation sphere                          
   RDEP   =    2.382    radius for radial grids                                 
   RDEPT  =    1.832    core radius for aug-charge                              
                                                                                
   Atomic configuration                                                         
   14 entries                                                                   
     n  l   j            E        occ.                                          
     1  0  0.50    -69464.1497   2.0000                                         
     2  0  0.50    -11984.7400   2.0000                                         
     2  1  1.50    -10478.3405   6.0000                                         
     3  0  0.50     -2757.5605   2.0000                                         
     3  1  1.50     -2311.6706   6.0000                                         
     3  2  2.50     -1799.5973  10.0000                                         
     4  0  0.50      -566.1609   2.0000                                         
     4  1  1.50      -419.9482   6.0000                                         
     4  2  2.50      -234.8191  10.0000                                         
     4  3  3.50       -29.7363  14.0000                                         
     5  0  0.50       -75.5905   2.0000                                         
     5  1  1.50       -39.9756   6.0000                                         
     5  2  2.50        -2.4479   6.0000                                         
     5  3  2.50        -1.3606   0.0000                                         
   Description                                                                  
     l       E           TYP  RCUT    TYP  RCUT                                 
     0    -75.5905419     23  1.500                                             
     0    -76.9511245     23  1.500                                             
     0    108.8466080     23  1.500                                             
     1    -39.9756040     23  1.800                                             
     1     68.0291300     23  1.800                                             
     2     -2.4478587     23  2.150                                             
     2     -0.0030619     23  2.150                                             
     3      4.0817478     23  2.300                                             
  local pseudopotential read in
  partial core-charges read in
  partial kinetic energy density read in
  kinetic energy density of atom read in
  atomic valenz-charges read in
  non local Contribution for L=           0  read in
    real space projection operators read in
  non local Contribution for L=           0  read in
    real space projection operators read in
  non local Contribution for L=           0  read in
    real space projection operators read in
  non local Contribution for L=           1  read in
    real space projection operators read in
  non local Contribution for L=           1  read in
    real space projection operators read in
  non local Contribution for L=           2  read in
    real space projection operators read in
  non local Contribution for L=           2  read in
    real space projection operators read in
  non local Contribution for L=           3  read in
    real space projection operators read in
    PAW grid and wavefunctions read in
 
   number of l-projection  operators is LMAX  =           8
   number of lm-projection operators is LMMAX =          26
 
 POTCAR:    PAW_PBE Se_GW 20Mar2012               
   VRHFIN =Se: s2p4                                                             
   LEXCH  = PE                                                                  
   EATOM  =   257.1286 eV,   18.8984 Ry                                         
                                                                                
   TITEL  = PAW_PBE Se_GW 20Mar2012                                             
   LULTRA =        F    use ultrasoft PP ?                                      
   IUNSCR =        1    unscreen: 0-lin 1-nonlin 2-no                           
   RPACOR =    1.900    partial core radius                                     
   POMASS =   78.960; ZVAL   =    6.000    mass and valenz                      
   RCORE  =    2.100    outmost cutoff radius                                   
   RWIGS  =    2.200; RWIGS  =    1.164    wigner-seitz radius (au A)           
   ENMAX  =  211.555; ENMIN  =  158.666 eV                                      
   ICORE  =        3    local potential                                         
   LCOR   =        T    correct aug charges                                     
   LPAW   =        T    paw PP                                                  
   EAUG   =  446.842                                                            
   DEXC   =    0.000                                                            
   RMAX   =    2.147    core radius for proj-oper                               
   RAUG   =    1.300    factor for augmentation sphere                          
   RDEP   =    2.177    radius for radial grids                                 
   RDEPT  =    1.928    core radius for aug-charge                              
                                                                                
   Atomic configuration                                                         
   10 entries                                                                   
     n  l   j            E        occ.                                          
     1  0  0.50    -12503.4788   2.0000                                         
     2  0  0.50     -1606.9547   2.0000                                         
     2  1  1.50     -1413.3140   6.0000                                         
     3  0  0.50      -213.4885   2.0000                                         
     3  1  1.50      -152.9538   6.0000                                         
     3  2  2.50       -53.1221  10.0000                                         
     4  0  0.50       -17.2865   2.0000                                         
     4  1  0.50        -6.5110   4.0000                                         
     4  2  2.50        -6.8029   0.0000                                         
     4  3  2.50        -6.8029   0.0000                                         
   Description                                                                  
     l       E           TYP  RCUT    TYP  RCUT                                 
     0    -17.2865391     23  2.100                                             
     0     68.0291300     23  2.100                                             
     1     -6.5110285     23  2.100                                             
     1     81.6349560     23  2.100                                             
     2     -6.8029130     23  2.100                                             
     3     -1.3605826      7  2.100                                             
  local pseudopotential read in
  partial core-charges read in
  partial kinetic energy density read in
  kinetic energy density of atom read in
  atomic valenz-charges read in
  non local Contribution for L=           0  read in
    real space projection operators read in
  non local Contribution for L=           0  read in
    real space projection operators read in
  non local Contribution for L=           1  read in
    real space projection operators read in
  non local Contribution for L=           1  read in
    real space projection operators read in
  non local Contribution for L=           2  read in
    real space projection operators read in
    PAW grid and wavefunctions read in
 
   number of l-projection  operators is LMAX  =           5
   number of lm-projection operators is LMMAX =          13
 
  PAW_PBE W_sv_GW 23Mar2010             :
 energy of atom  1       EATOM=-1863.8917
 kinetic energy error for atom=    0.2291 (will be added to EATOM!!)
  PAW_PBE Se_GW 20Mar2012               :
 energy of atom  2       EATOM= -257.1286
 kinetic energy error for atom=    0.0039 (will be added to EATOM!!)
 
 
 POSCAR:  W Se                                   
  positions in cartesian coordinates
  No initial velocities read in
 exchange correlation table for  LEXCH =        8
   RHO(1)=    0.500       N(1)  =     2000
   RHO(2)=  100.500       N(2)  =     4000
 


--------------------------------------------------------------------------------------------------------


 ion  position               nearest neighbor table
   1  0.167  0.333  0.435-   3 2.55   4 2.55   3 2.55   4 2.55   3 2.55   4 2.55
   2  0.833  0.667  0.565-   5 2.55   6 2.55   5 2.55   6 2.55   5 2.55   6 2.55
   3  0.833  0.667  0.469-   1 2.55   1 2.55   1 2.55
   4  0.833  0.667  0.402-   1 2.55   1 2.55   1 2.55
   5  0.167  0.333  0.598-   2 2.55   2 2.55   2 2.55
   6  0.167  0.333  0.531-   2 2.55   2 2.55   2 2.55
 
  LATTYP: Found a hexagonal cell.
 ALAT       =     3.3190066245
 C/A-ratio  =    15.0647484797
  
  Lattice vectors:
  
 A1 = (   3.3190066245,   0.0000000000,   0.0000000000)
 A2 = (  -1.6595033122,   2.8743440521,   0.0000000000)
 A3 = (   0.0000000000,   0.0000000000,  50.0000000000)


Analysis of symmetry for initial positions (statically):
=====================================================================
 Subroutine PRICEL returns:
 Original cell was already a primitive cell.
 

 Routine SETGRP: Setting up the symmetry group for a 
 hexagonal supercell.


 Subroutine GETGRP returns: Found 12 space group operations
 (whereof  4 operations were pure point group operations)
 out of a pool of 24 trial point group operations.


The static configuration has the point symmetry C_2h.
 The point group associated with its full space group is D_3d.


Analysis of symmetry for dynamics (positions and initial velocities):
=====================================================================
 Subroutine PRICEL returns:
 Original cell was already a primitive cell.
 

 Routine SETGRP: Setting up the symmetry group for a 
 hexagonal supercell.


 Subroutine GETGRP returns: Found 12 space group operations
 (whereof  4 operations were pure point group operations)
 out of a pool of 24 trial point group operations.


The dynamic configuration has the point symmetry C_2h.
 The point group associated with its full space group is D_3d.


 Subroutine INISYM returns: Found 12 space group operations
 (whereof  4 operations are pure point group operations),
 and found     1 'primitive' translations

 
 
 KPOINTS: KPOINTS created by Atomic Simulation Env

Automatic generation of k-mesh.
Space group operators:
 irot       det(A)        alpha          n_x          n_y          n_z        tau_x        tau_y        tau_z
    1     1.000000     0.000000     1.000000     0.000000     0.000000     0.000000     0.000000     0.000000
    2    -1.000000     0.000000     1.000000     0.000000     0.000000     0.000000     0.000000     0.000000
    3     1.000000   180.000000     1.000000     0.000000     0.000000     0.000000     0.000000     0.000000
    4    -1.000000   180.000000     1.000000     0.000000     0.000000     0.000000     0.000000     0.000000
    5     1.000000   120.000000     0.000000     0.000000    -1.000000     0.500000     0.500000     0.000000
    6    -1.000000   120.000000     0.000000     0.000000    -1.000000     0.500000     0.500000     0.000000
    7     1.000000   120.000000     0.000000     0.000000     1.000000     0.000000     0.500000     0.000000
    8    -1.000000   120.000000     0.000000     0.000000     1.000000     0.000000     0.500000     0.000000
    9     1.000000   180.000000     0.500000    -0.866025     0.000000    -0.000000     0.500000     0.000000
   10    -1.000000   180.000000     0.500000    -0.866025     0.000000    -0.000000     0.500000     0.000000
   11     1.000000   180.000000    -0.500000    -0.866025     0.000000     0.500000     0.500000     0.000000
   12    -1.000000   180.000000    -0.500000    -0.866025     0.000000     0.500000     0.500000     0.000000
 
 Subroutine IBZKPT returns following result:
 ===========================================
 
 Found     37 irreducible k-points:
 
 Following reciprocal coordinates:
            Coordinates               Weight
  0.000000  0.000000  0.000000      1.000000
  0.055556  0.000000  0.000000      6.000000
  0.111111  0.000000  0.000000      6.000000
  0.166667  0.000000  0.000000      6.000000
  0.222222  0.000000  0.000000      6.000000
  0.277778  0.000000  0.000000      6.000000
  0.333333  0.000000  0.000000      6.000000
  0.388889  0.000000  0.000000      6.000000
  0.444444  0.000000  0.000000      6.000000
  0.500000  0.000000  0.000000      3.000000
  0.055556  0.055556  0.000000      6.000000
  0.111111  0.055556  0.000000     12.000000
  0.166667  0.055556  0.000000     12.000000
  0.222222  0.055556  0.000000     12.000000
  0.277778  0.055556  0.000000     12.000000
  0.333333  0.055556  0.000000     12.000000
  0.388889  0.055556  0.000000     12.000000
  0.444444  0.055556  0.000000     12.000000
  0.111111  0.111111  0.000000      6.000000
  0.166667  0.111111  0.000000     12.000000
  0.222222  0.111111  0.000000     12.000000
  0.277778  0.111111  0.000000     12.000000
  0.333333  0.111111  0.000000     12.000000
  0.388889  0.111111  0.000000     12.000000
  0.444444  0.111111  0.000000      6.000000
  0.166667  0.166667  0.000000      6.000000
  0.222222  0.166667  0.000000     12.000000
  0.277778  0.166667  0.000000     12.000000
  0.333333  0.166667  0.000000     12.000000
  0.388889  0.166667  0.000000     12.000000
  0.222222  0.222222  0.000000      6.000000
  0.277778  0.222222  0.000000     12.000000
  0.333333  0.222222  0.000000     12.000000
  0.388889  0.222222  0.000000      6.000000
  0.277778  0.277778  0.000000      6.000000
  0.333333  0.277778  0.000000     12.000000
  0.333333  0.333333  0.000000      2.000000
 
 Following cartesian coordinates:
            Coordinates               Weight
  0.000000  0.000000  0.000000      1.000000
  0.016739  0.009664  0.000000      6.000000
  0.033477  0.019328  0.000000      6.000000
  0.050216  0.028992  0.000000      6.000000
  0.066954  0.038656  0.000000      6.000000
  0.083693  0.048320  0.000000      6.000000
  0.100432  0.057984  0.000000      6.000000
  0.117170  0.067648  0.000000      6.000000
  0.133909  0.077312  0.000000      6.000000
  0.150647  0.086976  0.000000      3.000000
  0.016739  0.028992  0.000000      6.000000
  0.033477  0.038656  0.000000     12.000000
  0.050216  0.048320  0.000000     12.000000
  0.066954  0.057984  0.000000     12.000000
  0.083693  0.067648  0.000000     12.000000
  0.100432  0.077312  0.000000     12.000000
  0.117170  0.086976  0.000000     12.000000
  0.133909  0.096640  0.000000     12.000000
  0.033477  0.057984  0.000000      6.000000
  0.050216  0.067648  0.000000     12.000000
  0.066954  0.077312  0.000000     12.000000
  0.083693  0.086976  0.000000     12.000000
  0.100432  0.096640  0.000000     12.000000
  0.117170  0.106304  0.000000     12.000000
  0.133909  0.115968  0.000000      6.000000
  0.050216  0.086976  0.000000      6.000000
  0.066954  0.096640  0.000000     12.000000
  0.083693  0.106304  0.000000     12.000000
  0.100432  0.115968  0.000000     12.000000
  0.117170  0.125633  0.000000     12.000000
  0.066954  0.115968  0.000000      6.000000
  0.083693  0.125633  0.000000     12.000000
  0.100432  0.135297  0.000000     12.000000
  0.117170  0.144961  0.000000      6.000000
  0.083693  0.144961  0.000000      6.000000
  0.100432  0.154625  0.000000     12.000000
  0.100432  0.173953  0.000000      2.000000
 
 TETIRR: Found    169 inequivalent tetrahedra from     1944
 
 Subroutine IBZKPT_HF returns following result:
 ==============================================
 
 Found    324 k-points in 1st BZ
 the following    324 k-points will be used (e.g. in the exchange kernel)
 Following reciprocal coordinates:   # in IRBZ
  0.000000  0.000000  0.000000    0.00308642   1 t-inv F
  0.055556  0.000000  0.000000    0.00308642   2 t-inv F
  0.111111  0.000000  0.000000    0.00308642   3 t-inv F
  0.166667  0.000000  0.000000    0.00308642   4 t-inv F
  0.222222  0.000000  0.000000    0.00308642   5 t-inv F
  0.277778  0.000000  0.000000    0.00308642   6 t-inv F
  0.333333  0.000000  0.000000    0.00308642   7 t-inv F
  0.388889  0.000000  0.000000    0.00308642   8 t-inv F
  0.444444  0.000000  0.000000    0.00308642   9 t-inv F
  0.500000  0.000000  0.000000    0.00308642  10 t-inv F
  0.055556  0.055556  0.000000    0.00308642  11 t-inv F
  0.111111  0.055556  0.000000    0.00308642  12 t-inv F
  0.166667  0.055556  0.000000    0.00308642  13 t-inv F
  0.222222  0.055556  0.000000    0.00308642  14 t-inv F
  0.277778  0.055556  0.000000    0.00308642  15 t-inv F
  0.333333  0.055556  0.000000    0.00308642  16 t-inv F
  0.388889  0.055556  0.000000    0.00308642  17 t-inv F
  0.444444  0.055556  0.000000    0.00308642  18 t-inv F
  0.111111  0.111111  0.000000    0.00308642  19 t-inv F
  0.166667  0.111111  0.000000    0.00308642  20 t-inv F
  0.222222  0.111111  0.000000    0.00308642  21 t-inv F
  0.277778  0.111111  0.000000    0.00308642  22 t-inv F
  0.333333  0.111111  0.000000    0.00308642  23 t-inv F
  0.388889  0.111111  0.000000    0.00308642  24 t-inv F
  0.444444  0.111111  0.000000    0.00308642  25 t-inv F
  0.166667  0.166667  0.000000    0.00308642  26 t-inv F
  0.222222  0.166667  0.000000    0.00308642  27 t-inv F
  0.277778  0.166667  0.000000    0.00308642  28 t-inv F
  0.333333  0.166667  0.000000    0.00308642  29 t-inv F
  0.388889  0.166667  0.000000    0.00308642  30 t-inv F
  0.222222  0.222222  0.000000    0.00308642  31 t-inv F
  0.277778  0.222222  0.000000    0.00308642  32 t-inv F
  0.333333  0.222222  0.000000    0.00308642  33 t-inv F
  0.388889  0.222222  0.000000    0.00308642  34 t-inv F
  0.277778  0.277778  0.000000    0.00308642  35 t-inv F
  0.333333  0.277778  0.000000    0.00308642  36 t-inv F
  0.333333  0.333333  0.000000    0.00308642  37 t-inv F
 -0.055556 -0.000000 -0.000000    0.00308642   2 t-inv F
  0.055556 -0.055556 -0.000000    0.00308642   2 t-inv F
 -0.055556  0.055556  0.000000    0.00308642   2 t-inv F
  0.000000 -0.055556  0.000000    0.00308642   2 t-inv F
 -0.000000  0.055556 -0.000000    0.00308642   2 t-inv F
 -0.111111 -0.000000 -0.000000    0.00308642   3 t-inv F
  0.111111 -0.111111 -0.000000    0.00308642   3 t-inv F
 -0.111111  0.111111  0.000000    0.00308642   3 t-inv F
  0.000000 -0.111111  0.000000    0.00308642   3 t-inv F
 -0.000000  0.111111 -0.000000    0.00308642   3 t-inv F
 -0.166667 -0.000000 -0.000000    0.00308642   4 t-inv F
  0.166667 -0.166667 -0.000000    0.00308642   4 t-inv F
 -0.166667  0.166667  0.000000    0.00308642   4 t-inv F
  0.000000 -0.166667  0.000000    0.00308642   4 t-inv F
 -0.000000  0.166667 -0.000000    0.00308642   4 t-inv F
 -0.222222 -0.000000 -0.000000    0.00308642   5 t-inv F
  0.222222 -0.222222 -0.000000    0.00308642   5 t-inv F
 -0.222222  0.222222  0.000000    0.00308642   5 t-inv F
  0.000000 -0.222222  0.000000    0.00308642   5 t-inv F
 -0.000000  0.222222 -0.000000    0.00308642   5 t-inv F
 -0.277778 -0.000000 -0.000000    0.00308642   6 t-inv F
  0.277778 -0.277778 -0.000000    0.00308642   6 t-inv F
 -0.277778  0.277778  0.000000    0.00308642   6 t-inv F
  0.000000 -0.277778  0.000000    0.00308642   6 t-inv F
 -0.000000  0.277778 -0.000000    0.00308642   6 t-inv F
 -0.333333 -0.000000 -0.000000    0.00308642   7 t-inv F
  0.333333 -0.333333 -0.000000    0.00308642   7 t-inv F
 -0.333333  0.333333  0.000000    0.00308642   7 t-inv F
  0.000000 -0.333333  0.000000    0.00308642   7 t-inv F
 -0.000000  0.333333 -0.000000    0.00308642   7 t-inv F
 -0.388889 -0.000000 -0.000000    0.00308642   8 t-inv F
  0.388889 -0.388889 -0.000000    0.00308642   8 t-inv F
 -0.388889  0.388889  0.000000    0.00308642   8 t-inv F
  0.000000 -0.388889  0.000000    0.00308642   8 t-inv F
 -0.000000  0.388889 -0.000000    0.00308642   8 t-inv F
 -0.444444 -0.000000 -0.000000    0.00308642   9 t-inv F
  0.444444 -0.444444 -0.000000    0.00308642   9 t-inv F
 -0.444444  0.444444  0.000000    0.00308642   9 t-inv F
  0.000000 -0.444444  0.000000    0.00308642   9 t-inv F
 -0.000000  0.444444 -0.000000    0.00308642   9 t-inv F
  0.500000 -0.500000 -0.000000    0.00308642  10 t-inv F
  0.000000 -0.500000  0.000000    0.00308642  10 t-inv F
 -0.055556 -0.055556 -0.000000    0.00308642  11 t-inv F
  0.055556 -0.111111 -0.000000    0.00308642  11 t-inv F
 -0.055556  0.111111  0.000000    0.00308642  11 t-inv F
 -0.111111  0.055556  0.000000    0.00308642  11 t-inv F
  0.111111 -0.055556 -0.000000    0.00308642  11 t-inv F
 -0.111111 -0.055556 -0.000000    0.00308642  12 t-inv F
  0.111111 -0.166667 -0.000000    0.00308642  12 t-inv F
 -0.111111  0.166667  0.000000    0.00308642  12 t-inv F
 -0.166667  0.111111  0.000000    0.00308642  12 t-inv F
  0.166667 -0.111111 -0.000000    0.00308642  12 t-inv F
  0.055556 -0.166667  0.000000    0.00308642  12 t-inv F
 -0.055556  0.166667 -0.000000    0.00308642  12 t-inv F
 -0.166667  0.055556 -0.000000    0.00308642  12 t-inv F
  0.166667 -0.055556  0.000000    0.00308642  12 t-inv F
  0.055556  0.111111 -0.000000    0.00308642  12 t-inv F
 -0.055556 -0.111111  0.000000    0.00308642  12 t-inv F
 -0.166667 -0.055556 -0.000000    0.00308642  13 t-inv F
  0.166667 -0.222222 -0.000000    0.00308642  13 t-inv F
 -0.166667  0.222222  0.000000    0.00308642  13 t-inv F
 -0.222222  0.166667  0.000000    0.00308642  13 t-inv F
  0.222222 -0.166667 -0.000000    0.00308642  13 t-inv F
  0.055556 -0.222222  0.000000    0.00308642  13 t-inv F
 -0.055556  0.222222 -0.000000    0.00308642  13 t-inv F
 -0.222222  0.055556 -0.000000    0.00308642  13 t-inv F
  0.222222 -0.055556  0.000000    0.00308642  13 t-inv F
  0.055556  0.166667 -0.000000    0.00308642  13 t-inv F
 -0.055556 -0.166667  0.000000    0.00308642  13 t-inv F
 -0.222222 -0.055556 -0.000000    0.00308642  14 t-inv F
  0.222222 -0.277778 -0.000000    0.00308642  14 t-inv F
 -0.222222  0.277778  0.000000    0.00308642  14 t-inv F
 -0.277778  0.222222  0.000000    0.00308642  14 t-inv F
  0.277778 -0.222222 -0.000000    0.00308642  14 t-inv F
  0.055556 -0.277778  0.000000    0.00308642  14 t-inv F
 -0.055556  0.277778 -0.000000    0.00308642  14 t-inv F
 -0.277778  0.055556 -0.000000    0.00308642  14 t-inv F
  0.277778 -0.055556  0.000000    0.00308642  14 t-inv F
  0.055556  0.222222 -0.000000    0.00308642  14 t-inv F
 -0.055556 -0.222222  0.000000    0.00308642  14 t-inv F
 -0.277778 -0.055556 -0.000000    0.00308642  15 t-inv F
  0.277778 -0.333333 -0.000000    0.00308642  15 t-inv F
 -0.277778  0.333333  0.000000    0.00308642  15 t-inv F
 -0.333333  0.277778  0.000000    0.00308642  15 t-inv F
  0.333333 -0.277778 -0.000000    0.00308642  15 t-inv F
  0.055556 -0.333333  0.000000    0.00308642  15 t-inv F
 -0.055556  0.333333 -0.000000    0.00308642  15 t-inv F
 -0.333333  0.055556 -0.000000    0.00308642  15 t-inv F
  0.333333 -0.055556  0.000000    0.00308642  15 t-inv F
  0.055556  0.277778 -0.000000    0.00308642  15 t-inv F
 -0.055556 -0.277778  0.000000    0.00308642  15 t-inv F
 -0.333333 -0.055556 -0.000000    0.00308642  16 t-inv F
  0.333333 -0.388889 -0.000000    0.00308642  16 t-inv F
 -0.333333  0.388889  0.000000    0.00308642  16 t-inv F
 -0.388889  0.333333  0.000000    0.00308642  16 t-inv F
  0.388889 -0.333333 -0.000000    0.00308642  16 t-inv F
  0.055556 -0.388889  0.000000    0.00308642  16 t-inv F
 -0.055556  0.388889 -0.000000    0.00308642  16 t-inv F
 -0.388889  0.055556 -0.000000    0.00308642  16 t-inv F
  0.388889 -0.055556  0.000000    0.00308642  16 t-inv F
  0.055556  0.333333 -0.000000    0.00308642  16 t-inv F
 -0.055556 -0.333333  0.000000    0.00308642  16 t-inv F
 -0.388889 -0.055556 -0.000000    0.00308642  17 t-inv F
  0.388889 -0.444444 -0.000000    0.00308642  17 t-inv F
 -0.388889  0.444444  0.000000    0.00308642  17 t-inv F
 -0.444444  0.388889  0.000000    0.00308642  17 t-inv F
  0.444444 -0.388889 -0.000000    0.00308642  17 t-inv F
  0.055556 -0.444444  0.000000    0.00308642  17 t-inv F
 -0.055556  0.444444 -0.000000    0.00308642  17 t-inv F
 -0.444444  0.055556 -0.000000    0.00308642  17 t-inv F
  0.444444 -0.055556  0.000000    0.00308642  17 t-inv F
  0.055556  0.388889 -0.000000    0.00308642  17 t-inv F
 -0.055556 -0.388889  0.000000    0.00308642  17 t-inv F
 -0.444444 -0.055556 -0.000000    0.00308642  18 t-inv F
  0.444444 -0.500000 -0.000000    0.00308642  18 t-inv F
 -0.444444  0.500000  0.000000    0.00308642  18 t-inv F
 -0.500000  0.444444  0.000000    0.00308642  18 t-inv F
  0.500000 -0.444444 -0.000000    0.00308642  18 t-inv F
  0.055556 -0.500000  0.000000    0.00308642  18 t-inv F
 -0.055556  0.500000 -0.000000    0.00308642  18 t-inv F
 -0.500000  0.055556 -0.000000    0.00308642  18 t-inv F
  0.500000 -0.055556  0.000000    0.00308642  18 t-inv F
  0.055556  0.444444 -0.000000    0.00308642  18 t-inv F
 -0.055556 -0.444444  0.000000    0.00308642  18 t-inv F
 -0.111111 -0.111111 -0.000000    0.00308642  19 t-inv F
  0.111111 -0.222222 -0.000000    0.00308642  19 t-inv F
 -0.111111  0.222222  0.000000    0.00308642  19 t-inv F
 -0.222222  0.111111  0.000000    0.00308642  19 t-inv F
  0.222222 -0.111111 -0.000000    0.00308642  19 t-inv F
 -0.166667 -0.111111 -0.000000    0.00308642  20 t-inv F
  0.166667 -0.277778 -0.000000    0.00308642  20 t-inv F
 -0.166667  0.277778  0.000000    0.00308642  20 t-inv F
 -0.277778  0.166667  0.000000    0.00308642  20 t-inv F
  0.277778 -0.166667 -0.000000    0.00308642  20 t-inv F
  0.111111 -0.277778  0.000000    0.00308642  20 t-inv F
 -0.111111  0.277778 -0.000000    0.00308642  20 t-inv F
 -0.277778  0.111111 -0.000000    0.00308642  20 t-inv F
  0.277778 -0.111111  0.000000    0.00308642  20 t-inv F
  0.111111  0.166667 -0.000000    0.00308642  20 t-inv F
 -0.111111 -0.166667  0.000000    0.00308642  20 t-inv F
 -0.222222 -0.111111 -0.000000    0.00308642  21 t-inv F
  0.222222 -0.333333 -0.000000    0.00308642  21 t-inv F
 -0.222222  0.333333  0.000000    0.00308642  21 t-inv F
 -0.333333  0.222222  0.000000    0.00308642  21 t-inv F
  0.333333 -0.222222 -0.000000    0.00308642  21 t-inv F
  0.111111 -0.333333  0.000000    0.00308642  21 t-inv F
 -0.111111  0.333333 -0.000000    0.00308642  21 t-inv F
 -0.333333  0.111111 -0.000000    0.00308642  21 t-inv F
  0.333333 -0.111111  0.000000    0.00308642  21 t-inv F
  0.111111  0.222222 -0.000000    0.00308642  21 t-inv F
 -0.111111 -0.222222  0.000000    0.00308642  21 t-inv F
 -0.277778 -0.111111 -0.000000    0.00308642  22 t-inv F
  0.277778 -0.388889 -0.000000    0.00308642  22 t-inv F
 -0.277778  0.388889  0.000000    0.00308642  22 t-inv F
 -0.388889  0.277778  0.000000    0.00308642  22 t-inv F
  0.388889 -0.277778 -0.000000    0.00308642  22 t-inv F
  0.111111 -0.388889  0.000000    0.00308642  22 t-inv F
 -0.111111  0.388889 -0.000000    0.00308642  22 t-inv F
 -0.388889  0.111111 -0.000000    0.00308642  22 t-inv F
  0.388889 -0.111111  0.000000    0.00308642  22 t-inv F
  0.111111  0.277778 -0.000000    0.00308642  22 t-inv F
 -0.111111 -0.277778  0.000000    0.00308642  22 t-inv F
 -0.333333 -0.111111 -0.000000    0.00308642  23 t-inv F
  0.333333 -0.444444 -0.000000    0.00308642  23 t-inv F
 -0.333333  0.444444  0.000000    0.00308642  23 t-inv F
 -0.444444  0.333333  0.000000    0.00308642  23 t-inv F
  0.444444 -0.333333 -0.000000    0.00308642  23 t-inv F
  0.111111 -0.444444  0.000000    0.00308642  23 t-inv F
 -0.111111  0.444444 -0.000000    0.00308642  23 t-inv F
 -0.444444  0.111111 -0.000000    0.00308642  23 t-inv F
  0.444444 -0.111111  0.000000    0.00308642  23 t-inv F
  0.111111  0.333333 -0.000000    0.00308642  23 t-inv F
 -0.111111 -0.333333  0.000000    0.00308642  23 t-inv F
 -0.388889 -0.111111 -0.000000    0.00308642  24 t-inv F
  0.388889 -0.500000 -0.000000    0.00308642  24 t-inv F
 -0.388889  0.500000  0.000000    0.00308642  24 t-inv F
 -0.500000  0.388889  0.000000    0.00308642  24 t-inv F
  0.500000 -0.388889 -0.000000    0.00308642  24 t-inv F
  0.111111 -0.500000  0.000000    0.00308642  24 t-inv F
 -0.111111  0.500000 -0.000000    0.00308642  24 t-inv F
 -0.500000  0.111111 -0.000000    0.00308642  24 t-inv F
  0.500000 -0.111111  0.000000    0.00308642  24 t-inv F
  0.111111  0.388889 -0.000000    0.00308642  24 t-inv F
 -0.111111 -0.388889  0.000000    0.00308642  24 t-inv F
 -0.444444 -0.111111 -0.000000    0.00308642  25 t-inv F
  0.444444 -0.555556 -0.000000    0.00308642  25 t-inv F
 -0.444444  0.555556  0.000000    0.00308642  25 t-inv F
  0.111111 -0.555556  0.000000    0.00308642  25 t-inv F
 -0.111111  0.555556 -0.000000    0.00308642  25 t-inv F
 -0.166667 -0.166667 -0.000000    0.00308642  26 t-inv F
  0.166667 -0.333333 -0.000000    0.00308642  26 t-inv F
 -0.166667  0.333333  0.000000    0.00308642  26 t-inv F
 -0.333333  0.166667  0.000000    0.00308642  26 t-inv F
  0.333333 -0.166667 -0.000000    0.00308642  26 t-inv F
 -0.222222 -0.166667 -0.000000    0.00308642  27 t-inv F
  0.222222 -0.388889 -0.000000    0.00308642  27 t-inv F
 -0.222222  0.388889  0.000000    0.00308642  27 t-inv F
 -0.388889  0.222222  0.000000    0.00308642  27 t-inv F
  0.388889 -0.222222 -0.000000    0.00308642  27 t-inv F
  0.166667 -0.388889  0.000000    0.00308642  27 t-inv F
 -0.166667  0.388889 -0.000000    0.00308642  27 t-inv F
 -0.388889  0.166667 -0.000000    0.00308642  27 t-inv F
  0.388889 -0.166667  0.000000    0.00308642  27 t-inv F
  0.166667  0.222222 -0.000000    0.00308642  27 t-inv F
 -0.166667 -0.222222  0.000000    0.00308642  27 t-inv F
 -0.277778 -0.166667 -0.000000    0.00308642  28 t-inv F
  0.277778 -0.444444 -0.000000    0.00308642  28 t-inv F
 -0.277778  0.444444  0.000000    0.00308642  28 t-inv F
 -0.444444  0.277778  0.000000    0.00308642  28 t-inv F
  0.444444 -0.277778 -0.000000    0.00308642  28 t-inv F
  0.166667 -0.444444  0.000000    0.00308642  28 t-inv F
 -0.166667  0.444444 -0.000000    0.00308642  28 t-inv F
 -0.444444  0.166667 -0.000000    0.00308642  28 t-inv F
  0.444444 -0.166667  0.000000    0.00308642  28 t-inv F
  0.166667  0.277778 -0.000000    0.00308642  28 t-inv F
 -0.166667 -0.277778  0.000000    0.00308642  28 t-inv F
 -0.333333 -0.166667 -0.000000    0.00308642  29 t-inv F
  0.333333 -0.500000 -0.000000    0.00308642  29 t-inv F
 -0.333333  0.500000  0.000000    0.00308642  29 t-inv F
 -0.500000  0.333333  0.000000    0.00308642  29 t-inv F
  0.500000 -0.333333 -0.000000    0.00308642  29 t-inv F
  0.166667 -0.500000  0.000000    0.00308642  29 t-inv F
 -0.166667  0.500000 -0.000000    0.00308642  29 t-inv F
 -0.500000  0.166667 -0.000000    0.00308642  29 t-inv F
  0.500000 -0.166667  0.000000    0.00308642  29 t-inv F
  0.166667  0.333333 -0.000000    0.00308642  29 t-inv F
 -0.166667 -0.333333  0.000000    0.00308642  29 t-inv F
 -0.388889 -0.166667 -0.000000    0.00308642  30 t-inv F
  0.388889 -0.555556 -0.000000    0.00308642  30 t-inv F
 -0.388889  0.555556  0.000000    0.00308642  30 t-inv F
 -0.555556  0.388889  0.000000    0.00308642  30 t-inv F
  0.555556 -0.388889 -0.000000    0.00308642  30 t-inv F
  0.166667 -0.555556  0.000000    0.00308642  30 t-inv F
 -0.166667  0.555556 -0.000000    0.00308642  30 t-inv F
 -0.555556  0.166667 -0.000000    0.00308642  30 t-inv F
  0.555556 -0.166667  0.000000    0.00308642  30 t-inv F
  0.166667  0.388889 -0.000000    0.00308642  30 t-inv F
 -0.166667 -0.388889  0.000000    0.00308642  30 t-inv F
 -0.222222 -0.222222 -0.000000    0.00308642  31 t-inv F
  0.222222 -0.444444 -0.000000    0.00308642  31 t-inv F
 -0.222222  0.444444  0.000000    0.00308642  31 t-inv F
 -0.444444  0.222222  0.000000    0.00308642  31 t-inv F
  0.444444 -0.222222 -0.000000    0.00308642  31 t-inv F
 -0.277778 -0.222222 -0.000000    0.00308642  32 t-inv F
  0.277778 -0.500000 -0.000000    0.00308642  32 t-inv F
 -0.277778  0.500000  0.000000    0.00308642  32 t-inv F
 -0.500000  0.277778  0.000000    0.00308642  32 t-inv F
  0.500000 -0.277778 -0.000000    0.00308642  32 t-inv F
  0.222222 -0.500000  0.000000    0.00308642  32 t-inv F
 -0.222222  0.500000 -0.000000    0.00308642  32 t-inv F
 -0.500000  0.222222 -0.000000    0.00308642  32 t-inv F
  0.500000 -0.222222  0.000000    0.00308642  32 t-inv F
  0.222222  0.277778 -0.000000    0.00308642  32 t-inv F
 -0.222222 -0.277778  0.000000    0.00308642  32 t-inv F
 -0.333333 -0.222222 -0.000000    0.00308642  33 t-inv F
  0.333333 -0.555556 -0.000000    0.00308642  33 t-inv F
 -0.333333  0.555556  0.000000    0.00308642  33 t-inv F
 -0.555556  0.333333  0.000000    0.00308642  33 t-inv F
  0.555556 -0.333333 -0.000000    0.00308642  33 t-inv F
  0.222222 -0.555556  0.000000    0.00308642  33 t-inv F
 -0.222222  0.555556 -0.000000    0.00308642  33 t-inv F
 -0.555556  0.222222 -0.000000    0.00308642  33 t-inv F
  0.555556 -0.222222  0.000000    0.00308642  33 t-inv F
  0.222222  0.333333 -0.000000    0.00308642  33 t-inv F
 -0.222222 -0.333333  0.000000    0.00308642  33 t-inv F
 -0.388889 -0.222222 -0.000000    0.00308642  34 t-inv F
  0.388889 -0.611111 -0.000000    0.00308642  34 t-inv F
 -0.388889  0.611111  0.000000    0.00308642  34 t-inv F
  0.222222 -0.611111  0.000000    0.00308642  34 t-inv F
 -0.222222  0.611111 -0.000000    0.00308642  34 t-inv F
 -0.277778 -0.277778 -0.000000    0.00308642  35 t-inv F
  0.277778 -0.555556 -0.000000    0.00308642  35 t-inv F
 -0.277778  0.555556  0.000000    0.00308642  35 t-inv F
 -0.555556  0.277778  0.000000    0.00308642  35 t-inv F
  0.555556 -0.277778 -0.000000    0.00308642  35 t-inv F
 -0.333333 -0.277778 -0.000000    0.00308642  36 t-inv F
  0.333333 -0.611111 -0.000000    0.00308642  36 t-inv F
 -0.333333  0.611111  0.000000    0.00308642  36 t-inv F
 -0.611111  0.333333  0.000000    0.00308642  36 t-inv F
  0.611111 -0.333333 -0.000000    0.00308642  36 t-inv F
  0.277778 -0.611111  0.000000    0.00308642  36 t-inv F
 -0.277778  0.611111 -0.000000    0.00308642  36 t-inv F
 -0.611111  0.277778 -0.000000    0.00308642  36 t-inv F
  0.611111 -0.277778  0.000000    0.00308642  36 t-inv F
  0.277778  0.333333 -0.000000    0.00308642  36 t-inv F
 -0.277778 -0.333333  0.000000    0.00308642  36 t-inv F
 -0.333333 -0.333333 -0.000000    0.00308642  37 t-inv F


--------------------------------------------------------------------------------------------------------




 Dimension of arrays:
   k-points           NKPTS =     37   k-points in BZ     NKDIM =     37   number of bands    NBANDS=     56
   number of dos      NEDOS =    301   number of ions     NIONS =      6
   non local maximal  LDIM  =      8   non local SUM 2l+1 LMDIM =     26
   total plane-waves  NPLWV = 117600
   max r-space proj   IRMAX =      1   max aug-charges    IRDMAX=  10950
   dimension x,y,z NGX =    20 NGY =   20 NGZ =  294
   dimension x,y,z NGXF=    40 NGYF=   40 NGZF=  588
   support grid    NGXF=    40 NGYF=   40 NGZF=  588
   ions per type =               2   4
 NGX,Y,Z   is equivalent  to a cutoff of  10.02, 10.02,  9.78 a.u.
 NGXF,Y,Z  is equivalent  to a cutoff of  20.04, 20.04, 19.55 a.u.


 I would recommend the setting:
   dimension x,y,z NGX =    19 NGY =   19 NGZ =  290
 SYSTEM =  unknown system                          
 POSCAR =   W Se                                   

 Startparameter for this run:
   NWRITE =      2    write-flag & timer
   PREC   = accura    normal or accurate (medium, high low for compatibility)
   ISTART =      0    job   : 0-new  1-cont  2-samecut
   ICHARG =      2    charge: 1-file 2-atom 10-const
   ISPIN  =      1    spin polarized calculation?
   LNONCOLLINEAR =      F non collinear calculations
   LSORBIT =      F    spin-orbit coupling
   INIWAV =      1    electr: 0-lowe 1-rand  2-diag
   LASPH  =      F    aspherical Exc in radial PAW
   METAGGA=      F    non-selfconsistent MetaGGA calc.

 Electronic Relaxation 1
   ENCUT  =  317.1 eV  23.31 Ry    4.83 a.u.   4.82  4.82 72.60*2*pi/ulx,y,z
   ENINI  =  317.1     initial cutoff
   ENAUG  =  807.8 eV  augmentation charge cutoff
   NELM   =     60;   NELMIN=  5; NELMDL= -5     # of ELM steps 
   EDIFF  = 0.1E-07   stopping-criterion for ELM
   LREAL  =      F    real-space projection
   NLSPLINE    = F    spline interpolate recip. space projectors
   LCOMPAT=      F    compatible to vasp.4.4
   GGA_COMPAT  = T    GGA compatible to vasp.4.4-vasp.4.6
   LMAXPAW     = -100 max onsite density
   LMAXMIX     =    2 max onsite mixed and CHGCAR
   VOSKOWN=      0    Vosko Wilk Nusair interpolation
   ROPT   =    0.00000   0.00000
 Ionic relaxation
   EDIFFG = 0.1E-06   stopping-criterion for IOM
   NSW    =      0    number of steps for IOM
   NBLOCK =      1;   KBLOCK =      1    inner block; outer block 
   IBRION =     -1    ionic relax: 0-MD 1-quasi-New 2-CG
   NFREE  =      0    steps in history (QN), initial steepest desc. (CG)
   ISIF   =      2    stress and relaxation
   IWAVPR =     10    prediction:  0-non 1-charg 2-wave 3-comb
   ISYM   =      2    0-nonsym 1-usesym 2-fastsym
   LCORR  =      T    Harris-Foulkes like correction to forces

   POTIM  = 0.5000    time-step for ionic-motion
   TEIN   =    0.0    initial temperature
   TEBEG  =    0.0;   TEEND  =   0.0 temperature during run
   SMASS  =  -3.00    Nose mass-parameter (am)
   estimated Nose-frequenzy (Omega)   =  0.10E-29 period in steps =****** mass=  -0.252E-27a.u.
   SCALEE = 1.0000    scale energy and forces
   NPACO  =    256;   APACO  = 16.0  distance and # of slots for P.C.
   PSTRESS=    0.0 pullay stress

  Mass of Ions in am
   POMASS = 183.85 78.96
  Ionic Valenz
   ZVAL   =  14.00  6.00
  Atomic Wigner-Seitz radii
   RWIGS  =  -1.00 -1.00
  virtual crystal weights 
   VCA    =   1.00  1.00
   NELECT =      52.0000    total number of electrons
   NUPDOWN=      -1.0000    fix difference up-down

 DOS related values:
   EMIN   =  10.00;   EMAX   =-10.00  energy-range for DOS
   EFERMI =   0.00
   ISMEAR =    -5;   SIGMA  =   0.01  broadening in eV -4-tet -1-fermi 0-gaus

 Electronic relaxation 2 (details)
   IALGO  =     38    algorithm
   LDIAG  =      T    sub-space diagonalisation (order eigenvalues)
   LSUBROT=      F    optimize rotation matrix (better conditioning)
   TURBO    =      0    0=normal 1=particle mesh
   IRESTART =      0    0=no restart 2=restart with 2 vectors
   NREBOOT  =      0    no. of reboots
   NMIN     =      0    reboot dimension
   EREF     =   0.00    reference energy to select bands
   IMIX   =      4    mixing-type and parameters
     AMIX     =   0.40;   BMIX     =  1.00
     AMIX_MAG =   1.60;   BMIX_MAG =  1.00
     AMIN     =   0.10
     WC   =   100.;   INIMIX=   1;  MIXPRE=   1;  MAXMIX= -45

 Intra band minimization:
   WEIMIN = 0.0000     energy-eigenvalue tresh-hold
   EBREAK =  0.45E-10  absolut break condition
   DEPER  =   0.30     relativ break condition  

   TIME   =   0.40     timestep for ELM

  volume/ion in A,a.u.               =      79.50       536.49
  Fermi-wavevector in a.u.,A,eV,Ry     =   0.782054  1.477869  8.321448  0.611609
  Thomas-Fermi vector in A             =   1.885699
 
 Write flags
   LWAVE  =      T    write WAVECAR
   LCHARG =      T    write CHGCAR
   LVTOT  =      F    write LOCPOT, total local potential
   LVHAR  =      F    write LOCPOT, Hartree potential only
   LELF   =      F    write electronic localiz. function (ELF)
   LORBIT =      0    0 simple, 1 ext, 2 COOP (PROOUT)


 Dipole corrections
   LMONO  =      F    monopole corrections only (constant potential shift)
   LDIPOL =      F    correct potential (dipole corrections)
   IDIPOL =      0    1-x, 2-y, 3-z, 4-all directions 
   EPSILON=  1.0000000 bulk dielectric constant

 Exchange correlation treatment:
   GGA     =    PE    GGA type
   LEXCH   =     8    internal setting for exchange type
   VOSKOWN=      0    Vosko Wilk Nusair interpolation
   LHFCALC =     F    Hartree Fock is set to
   LHFONE  =     F    Hartree Fock one center treatment
   AEXX    =    0.0000 exact exchange contribution

 Linear response parameters
   LEPSILON=     T    determine dielectric tensor
   LRPA    =     F    only Hartree local field effects (RPA)
   LNABLA  =     F    use nabla operator in PAW spheres
   LVEL    =     F    velocity operator in full k-point grid
   LINTERFAST=   F  fast interpolation
   KINTER  =     0    interpolate to denser k-point grid
   CSHIFT  =0.1000    complex shift for real part using Kramers Kronig
   OMEGAMAX=  -1.0    maximum frequency
   DEG_THRESHOLD= 0.2000000E-02 threshold for treating states as degnerate
   RTIME   =    0.100 relaxation time in fs

 Orbital magnetization related:
   ORBITALMAG=     F  switch on orbital magnetization
   LCHIMAG   =     F  perturbation theory with respect to B field
   DQ        =  0.001000  dq finite difference perturbation B field



--------------------------------------------------------------------------------------------------------


 Static calculation
 charge density and potential will be updated during run
 non-spin polarized calculation
 Variant of blocked Davidson
 Davidson routine will perform the subspace rotation
 perform sub-space diagonalisation
    after iterative eigenvector-optimisation
 modified Broyden-mixing scheme, WC =      100.0
 initial mixing is a Kerker type mixing with AMIX =  0.4000 and BMIX =      1.0000
 Hartree-type preconditioning will be used
 using additional bands           30
 reciprocal scheme for non local part
 use partial core corrections
 calculate Harris-corrections to forces 
   (improved forces if not selfconsistent)
 use gradient corrections 
 use of overlap-Matrix (Vanderbilt PP)
 Fermi weights with tetrahedron method with Bloechl corrections


--------------------------------------------------------------------------------------------------------


  energy-cutoff  :      317.13
  volume of cell :      477.00
      direct lattice vectors                 reciprocal lattice vectors
     3.319006624  0.000000000  0.000000000     0.301294970  0.173952732  0.000000000
    -1.659503312  2.874344052  0.000000000     0.000000000  0.347905464  0.000000000
     0.000000000  0.000000000 50.000000000     0.000000000  0.000000000  0.020000000

  length of vectors
     3.319006624  3.319006624 50.000000000     0.347905464  0.347905464  0.020000000


 
 k-points in units of 2pi/SCALE and weight: KPOINTS created by Atomic Simulation Env
   0.00000000  0.00000000  0.00000000       0.003
   0.01673861  0.00966404  0.00000000       0.019
   0.03347722  0.01932808  0.00000000       0.019
   0.05021583  0.02899212  0.00000000       0.019
   0.06695444  0.03865616  0.00000000       0.019
   0.08369305  0.04832020  0.00000000       0.019
   0.10043166  0.05798424  0.00000000       0.019
   0.11717027  0.06764828  0.00000000       0.019
   0.13390888  0.07731233  0.00000000       0.019
   0.15064748  0.08697637  0.00000000       0.009
   0.01673861  0.02899212  0.00000000       0.019
   0.03347722  0.03865616  0.00000000       0.037
   0.05021583  0.04832020  0.00000000       0.037
   0.06695444  0.05798424  0.00000000       0.037
   0.08369305  0.06764828  0.00000000       0.037
   0.10043166  0.07731233  0.00000000       0.037
   0.11717027  0.08697637  0.00000000       0.037
   0.13390888  0.09664041  0.00000000       0.037
   0.03347722  0.05798424  0.00000000       0.019
   0.05021583  0.06764828  0.00000000       0.037
   0.06695444  0.07731233  0.00000000       0.037
   0.08369305  0.08697637  0.00000000       0.037
   0.10043166  0.09664041  0.00000000       0.037
   0.11717027  0.10630445  0.00000000       0.037
   0.13390888  0.11596849  0.00000000       0.019
   0.05021583  0.08697637  0.00000000       0.019
   0.06695444  0.09664041  0.00000000       0.037
   0.08369305  0.10630445  0.00000000       0.037
   0.10043166  0.11596849  0.00000000       0.037
   0.11717027  0.12563253  0.00000000       0.037
   0.06695444  0.11596849  0.00000000       0.019
   0.08369305  0.12563253  0.00000000       0.037
   0.10043166  0.13529657  0.00000000       0.037
   0.11717027  0.14496061  0.00000000       0.019
   0.08369305  0.14496061  0.00000000       0.019
   0.10043166  0.15462465  0.00000000       0.037
   0.10043166  0.17395273  0.00000000       0.006
 
 k-points in reciprocal lattice and weights: KPOINTS created by Atomic Simulation Env
   0.00000000  0.00000000  0.00000000       0.003
   0.05555556  0.00000000  0.00000000       0.019
   0.11111111  0.00000000  0.00000000       0.019
   0.16666667  0.00000000  0.00000000       0.019
   0.22222222  0.00000000  0.00000000       0.019
   0.27777778  0.00000000  0.00000000       0.019
   0.33333333  0.00000000  0.00000000       0.019
   0.38888889  0.00000000  0.00000000       0.019
   0.44444444  0.00000000  0.00000000       0.019
   0.50000000  0.00000000  0.00000000       0.009
   0.05555556  0.05555556  0.00000000       0.019
   0.11111111  0.05555556  0.00000000       0.037
   0.16666667  0.05555556  0.00000000       0.037
   0.22222222  0.05555556  0.00000000       0.037
   0.27777778  0.05555556  0.00000000       0.037
   0.33333333  0.05555556  0.00000000       0.037
   0.38888889  0.05555556  0.00000000       0.037
   0.44444444  0.05555556  0.00000000       0.037
   0.11111111  0.11111111  0.00000000       0.019
   0.16666667  0.11111111  0.00000000       0.037
   0.22222222  0.11111111  0.00000000       0.037
   0.27777778  0.11111111  0.00000000       0.037
   0.33333333  0.11111111  0.00000000       0.037
   0.38888889  0.11111111  0.00000000       0.037
   0.44444444  0.11111111  0.00000000       0.019
   0.16666667  0.16666667  0.00000000       0.019
   0.22222222  0.16666667  0.00000000       0.037
   0.27777778  0.16666667  0.00000000       0.037
   0.33333333  0.16666667  0.00000000       0.037
   0.38888889  0.16666667  0.00000000       0.037
   0.22222222  0.22222222  0.00000000       0.019
   0.27777778  0.22222222  0.00000000       0.037
   0.33333333  0.22222222  0.00000000       0.037
   0.38888889  0.22222222  0.00000000       0.019
   0.27777778  0.27777778  0.00000000       0.019
   0.33333333  0.27777778  0.00000000       0.037
   0.33333333  0.33333333  0.00000000       0.006
 
 position of ions in fractional coordinates (direct lattice) 
   0.16666667  0.33333333  0.43510000
   0.83333333  0.66666667  0.56490000
   0.83333333  0.66666667  0.46868553
   0.83333333  0.66666667  0.40151447
   0.16666667  0.33333333  0.59848553
   0.16666667  0.33333333  0.53131447
 
 position of ions in cartesian coordinates  (Angst):
  -0.00000000  0.95811468 21.75500000
   1.65950331  1.91622937 28.24500000
   1.65950331  1.91622937 23.43427640
   1.65950331  1.91622937 20.07572360
  -0.00000000  0.95811468 29.92427640
  -0.00000000  0.95811468 26.56572360
 


--------------------------------------------------------------------------------------------------------


 k-point  1 :   0.0000 0.0000 0.0000  plane waves:    6121
 k-point  2 :   0.0556 0.0000 0.0000  plane waves:    6111
 k-point  3 :   0.1111 0.0000 0.0000  plane waves:    6099
 k-point  4 :   0.1667 0.0000 0.0000  plane waves:    6067
 k-point  5 :   0.2222 0.0000 0.0000  plane waves:    6078
 k-point  6 :   0.2778 0.0000 0.0000  plane waves:    6110
 k-point  7 :   0.3333 0.0000 0.0000  plane waves:    6112
 k-point  8 :   0.3889 0.0000 0.0000  plane waves:    6106
 k-point  9 :   0.4444 0.0000 0.0000  plane waves:    6154
 k-point 10 :   0.5000 0.0000 0.0000  plane waves:    6148
 k-point 11 :   0.0556 0.0556 0.0000  plane waves:    6097
 k-point 12 :   0.1111 0.0556 0.0000  plane waves:    6081
 k-point 13 :   0.1667 0.0556 0.0000  plane waves:    6065
 k-point 14 :   0.2222 0.0556 0.0000  plane waves:    6087
 k-point 15 :   0.2778 0.0556 0.0000  plane waves:    6111
 k-point 16 :   0.3333 0.0556 0.0000  plane waves:    6129
 k-point 17 :   0.3889 0.0556 0.0000  plane waves:    6117
 k-point 18 :   0.4444 0.0556 0.0000  plane waves:    6146
 k-point 19 :   0.1111 0.1111 0.0000  plane waves:    6073
 k-point 20 :   0.1667 0.1111 0.0000  plane waves:    6075
 k-point 21 :   0.2222 0.1111 0.0000  plane waves:    6102
 k-point 22 :   0.2778 0.1111 0.0000  plane waves:    6123
 k-point 23 :   0.3333 0.1111 0.0000  plane waves:    6123
 k-point 24 :   0.3889 0.1111 0.0000  plane waves:    6135
 k-point 25 :   0.4444 0.1111 0.0000  plane waves:    6144
 k-point 26 :   0.1667 0.1667 0.0000  plane waves:    6095
 k-point 27 :   0.2222 0.1667 0.0000  plane waves:    6106
 k-point 28 :   0.2778 0.1667 0.0000  plane waves:    6111
 k-point 29 :   0.3333 0.1667 0.0000  plane waves:    6126
 k-point 30 :   0.3889 0.1667 0.0000  plane waves:    6142
 k-point 31 :   0.2222 0.2222 0.0000  plane waves:    6129
 k-point 32 :   0.2778 0.2222 0.0000  plane waves:    6122
 k-point 33 :   0.3333 0.2222 0.0000  plane waves:    6162
 k-point 34 :   0.3889 0.2222 0.0000  plane waves:    6183
 k-point 35 :   0.2778 0.2778 0.0000  plane waves:    6135
 k-point 36 :   0.3333 0.2778 0.0000  plane waves:    6164
 k-point 37 :   0.3333 0.3333 0.0000  plane waves:    6165

 maximum and minimum number of plane-waves per node :      6183     6065

 maximum number of plane-waves:      6183
 maximum index in each direction: 
   IXMAX=    4   IYMAX=    4   IZMAX=   72
   IXMIN=   -5   IYMIN=   -5   IZMIN=  -72

 NGX is ok and might be reduce to  20
 NGY is ok and might be reduce to  20
 NGZ is ok and might be reduce to 290

 serial   3D FFT for wavefunctions
 parallel 3D FFT for charge:
    minimum data exchange during FFTs selected (reduces bandwidth)


 total amount of memory used by VASP on root node   142786. kBytes
========================================================================

   base      :      30000. kBytes
   nonl-proj :      95839. kBytes
   fftplans  :       1943. kBytes
   grid      :       7351. kBytes
   one-center:        194. kBytes
   wavefun   :       7459. kBytes
 
     INWAV:  cpu time    0.0000: real time    0.0000
 Broyden mixing: mesh for mixing (old mesh)
   NGX =  9   NGY =  9   NGZ =145
  (NGX  = 40   NGY  = 40   NGZ  =588)
  gives a total of  11745 points

 initial charge density was supplied:
 charge density of overlapping atoms calculated
 number of electron      52.0000000 magnetization 
 keeping initial charge density in first step


--------------------------------------------------------------------------------------------------------


 Maximum index for augmentation-charges          872 (set IRDMAX)


--------------------------------------------------------------------------------------------------------


 First call to EWALD:  gamma=   0.227
 Maximum number of real-space cells 7x 7x 1
 Maximum number of reciprocal cells 1x 1x15

 FEWALD executed in parallel
    FEWALD:  cpu time    0.0010: real time    0.0012


----------------------------------------- Iteration    1(   1)  ---------------------------------------


    POTLOK:  cpu time    0.0300: real time    0.0300
    SETDIJ:  cpu time    0.0050: real time    0.0054
     EDDAV:  cpu time    4.1594: real time    4.1682
 BZINTS: Fermi energy:  4.073033; 52.000000 electrons
         Band energy:-761.106124;  BLOECHL correction: -0.279155
       DOS:  cpu time    0.0170: real time    0.0163
    --------------------------------------------
      LOOP:  cpu time    4.2124: real time    4.2222

 eigenvalue-minimisations  :  5908
 total energy-change (2. order) : 0.2279707E+03  (-0.2106218E+04)
 number of electron      52.0000000 magnetization 
 augmentation part       52.0000000 magnetization 

 Free energy of the ion-electron system (eV)
  ---------------------------------------------------
  alpha Z        PSCENC =        58.00466035
  Ewald energy   TEWEN  =     58665.43712610
  -Hartree energ DENC   =    -62707.31637896
  -exchange      EXHF   =         0.00000000
  -V(xc)+E(xc)   XCENC  =       -39.04649112
  PAW double counting   =      3957.31448160    -3701.14082597
  entropy T*S    EENTRO =         0.00000000
  eigenvalues    EBANDS =      -761.10612382
  atomic energy  EATOM  =      4755.82427107
  Solvation  Ediel_sol  =         0.00000000
  ---------------------------------------------------
  free energy    TOTEN  =       227.97071926 eV

  energy without entropy =      227.97071926  energy(sigma->0) =      227.97071926


--------------------------------------------------------------------------------------------------------




----------------------------------------- Iteration    1(   2)  ---------------------------------------


     EDDAV:  cpu time    4.9293: real time    4.9370
 BZINTS: Fermi energy: -0.743666; 52.000000 electrons
         Band energy:***********;  BLOECHL correction:  0.000000
       DOS:  cpu time    0.0030: real time    0.0034
    --------------------------------------------
      LOOP:  cpu time    4.9352: real time    4.9471

 eigenvalue-minimisations  :  7112
 total energy-change (2. order) :-0.2703127E+03  (-0.2604126E+03)
 number of electron      52.0000000 magnetization 
 augmentation part       52.0000000 magnetization 

 Free energy of the ion-electron system (eV)
  ---------------------------------------------------
  alpha Z        PSCENC =        58.00466035
  Ewald energy   TEWEN  =     58665.43712610
  -Hartree energ DENC   =    -62707.31637896
  -exchange      EXHF   =         0.00000000
  -V(xc)+E(xc)   XCENC  =       -39.04649112
  PAW double counting   =      3957.31448160    -3701.14082597
  entropy T*S    EENTRO =         0.00000000
  eigenvalues    EBANDS =     -1031.41878858
  atomic energy  EATOM  =      4755.82427107
  Solvation  Ediel_sol  =         0.00000000
  ---------------------------------------------------
  free energy    TOTEN  =       -42.34194550 eV

  energy without entropy =      -42.34194550  energy(sigma->0) =      -42.34194550


--------------------------------------------------------------------------------------------------------




----------------------------------------- Iteration    1(   3)  ---------------------------------------


     EDDAV:  cpu time    3.3525: real time    3.3566
 BZINTS: Fermi energy: -1.595780; 52.000000 electrons
         Band energy:***********;  BLOECHL correction:  0.000000
       DOS:  cpu time    0.0030: real time    0.0032
    --------------------------------------------
      LOOP:  cpu time    3.3565: real time    3.3625

 eigenvalue-minimisations  :  4732
 total energy-change (2. order) :-0.9405131E+01  (-0.9299403E+01)
 number of electron      52.0000000 magnetization 
 augmentation part       52.0000000 magnetization 

 Free energy of the ion-electron system (eV)
  ---------------------------------------------------
  alpha Z        PSCENC =        58.00466035
  Ewald energy   TEWEN  =     58665.43712610
  -Hartree energ DENC   =    -62707.31637896
  -exchange      EXHF   =         0.00000000
  -V(xc)+E(xc)   XCENC  =       -39.04649112
  PAW double counting   =      3957.31448160    -3701.14082597
  entropy T*S    EENTRO =         0.00000000
  eigenvalues    EBANDS =     -1040.82391953
  atomic energy  EATOM  =      4755.82427107
  Solvation  Ediel_sol  =         0.00000000
  ---------------------------------------------------
  free energy    TOTEN  =       -51.74707645 eV

  energy without entropy =      -51.74707645  energy(sigma->0) =      -51.74707645


--------------------------------------------------------------------------------------------------------




----------------------------------------- Iteration    1(   4)  ---------------------------------------


     EDDAV:  cpu time    4.4573: real time    4.4630
 BZINTS: Fermi energy: -1.632773; 52.000000 electrons
         Band energy:***********;  BLOECHL correction:  0.000000
       DOS:  cpu time    0.0030: real time    0.0028
    --------------------------------------------
      LOOP:  cpu time    4.4623: real time    4.4685

 eigenvalue-minimisations  :  6384
 total energy-change (2. order) :-0.1410248E+00  (-0.1408894E+00)
 number of electron      52.0000000 magnetization 
 augmentation part       52.0000000 magnetization 

 Free energy of the ion-electron system (eV)
  ---------------------------------------------------
  alpha Z        PSCENC =        58.00466035
  Ewald energy   TEWEN  =     58665.43712610
  -Hartree energ DENC   =    -62707.31637896
  -exchange      EXHF   =         0.00000000
  -V(xc)+E(xc)   XCENC  =       -39.04649112
  PAW double counting   =      3957.31448160    -3701.14082597
  entropy T*S    EENTRO =         0.00000000
  eigenvalues    EBANDS =     -1040.96494435
  atomic energy  EATOM  =      4755.82427107
  Solvation  Ediel_sol  =         0.00000000
  ---------------------------------------------------
  free energy    TOTEN  =       -51.88810127 eV

  energy without entropy =      -51.88810127  energy(sigma->0) =      -51.88810127


--------------------------------------------------------------------------------------------------------




----------------------------------------- Iteration    1(   5)  ---------------------------------------


     EDDAV:  cpu time    3.6584: real time    3.6616
 BZINTS: Fermi energy: -1.652459; 52.000000 electrons
         Band energy:***********;  BLOECHL correction:  0.000000
       DOS:  cpu time    0.0030: real time    0.0028
    CHARGE:  cpu time    0.0920: real time    0.0928
    MIXING:  cpu time    0.0020: real time    0.0012
    --------------------------------------------
      LOOP:  cpu time    3.7564: real time    3.7606

 eigenvalue-minimisations  :  5180
 total energy-change (2. order) :-0.1846555E-02  (-0.1846502E-02)
 number of electron      51.9999993 magnetization 
 augmentation part       -8.8499866 magnetization 

 Broyden mixing:
  rms(total) = 0.10844E+02    rms(broyden)= 0.10844E+02
  rms(prec ) = 0.10847E+02
  weight for this iteration     100.00

 Free energy of the ion-electron system (eV)
  ---------------------------------------------------
  alpha Z        PSCENC =        58.00466035
  Ewald energy   TEWEN  =     58665.43712610
  -Hartree energ DENC   =    -62707.31637896
  -exchange      EXHF   =         0.00000000
  -V(xc)+E(xc)   XCENC  =       -39.04649112
  PAW double counting   =      3957.31448160    -3701.14082597
  entropy T*S    EENTRO =         0.00000000
  eigenvalues    EBANDS =     -1040.96679091
  atomic energy  EATOM  =      4755.82427107
  Solvation  Ediel_sol  =         0.00000000
  ---------------------------------------------------
  free energy    TOTEN  =       -51.88994783 eV

  energy without entropy =      -51.88994783  energy(sigma->0) =      -51.88994783


--------------------------------------------------------------------------------------------------------




----------------------------------------- Iteration    1(   6)  ---------------------------------------


    POTLOK:  cpu time    0.0270: real time    0.0272
    SETDIJ:  cpu time    0.0050: real time    0.0052
     EDDAV:  cpu time    3.1055: real time    3.1075
 BZINTS: Fermi energy: -2.809402; 52.000000 electrons
         Band energy:***********;  BLOECHL correction:  0.000000
       DOS:  cpu time    0.0030: real time    0.0033
    CHARGE:  cpu time    0.0920: real time    0.0924
    MIXING:  cpu time    0.0020: real time    0.0011
    --------------------------------------------
      LOOP:  cpu time    3.2345: real time    3.2389

 eigenvalue-minimisations  :  4312
 total energy-change (2. order) : 0.3833139E+01  (-0.1440233E+01)
 number of electron      51.9999993 magnetization 
 augmentation part       -8.2603891 magnetization 

 Broyden mixing:
  rms(total) = 0.10096E+02    rms(broyden)= 0.10096E+02
  rms(prec ) = 0.10097E+02
  weight for this iteration     100.00

 eigenvalues of (default mixing * dielectric matrix)
  average eigenvalue GAMMA=   3.2594
  3.2594

 Free energy of the ion-electron system (eV)
  ---------------------------------------------------
  alpha Z        PSCENC =        58.00466035
  Ewald energy   TEWEN  =     58665.43712610
  -Hartree energ DENC   =    -62625.42872113
  -exchange      EXHF   =         0.00000000
  -V(xc)+E(xc)   XCENC  =       -40.44698358
  PAW double counting   =      4838.18147033    -4584.98550373
  entropy T*S    EENTRO =         0.00000000
  eigenvalues    EBANDS =     -1114.64312799
  atomic energy  EATOM  =      4755.82427107
  Solvation  Ediel_sol  =         0.00000000
  ---------------------------------------------------
  free energy    TOTEN  =       -48.05680857 eV

  energy without entropy =      -48.05680857  energy(sigma->0) =      -48.05680857


--------------------------------------------------------------------------------------------------------




----------------------------------------- Iteration    1(   7)  ---------------------------------------


    POTLOK:  cpu time    0.0270: real time    0.0267
    SETDIJ:  cpu time    0.0050: real time    0.0052
     EDDAV:  cpu time    3.7764: real time    3.7804
 BZINTS: Fermi energy: -0.047968; 52.000000 electrons
         Band energy:-987.659381;  BLOECHL correction:  0.000000
       DOS:  cpu time    0.0030: real time    0.0033
    CHARGE:  cpu time    0.0930: real time    0.0927
    MIXING:  cpu time    0.0010: real time    0.0011
    --------------------------------------------
      LOOP:  cpu time    3.9064: real time    3.9121

 eigenvalue-minimisations  :  5376
 total energy-change (2. order) :-0.5010006E+01  (-0.2382221E+01)
 number of electron      51.9999993 magnetization 
 augmentation part       -8.8836402 magnetization 

 Broyden mixing:
  rms(total) = 0.66570E+01    rms(broyden)= 0.66570E+01
  rms(prec ) = 0.66656E+01
  weight for this iteration     100.00

 eigenvalues of (default mixing * dielectric matrix)
  average eigenvalue GAMMA=   1.4925
  0.8009  2.1840

 Free energy of the ion-electron system (eV)
  ---------------------------------------------------
  alpha Z        PSCENC =        58.00466035
  Ewald energy   TEWEN  =     58665.43712610
  -Hartree energ DENC   =    -62764.44535423
  -exchange      EXHF   =         0.00000000
  -V(xc)+E(xc)   XCENC  =       -39.90232388
  PAW double counting   =      7255.15780624    -6995.48361882
  entropy T*S    EENTRO =         0.00000000
  eigenvalues    EBANDS =      -987.65938118
  atomic energy  EATOM  =      4755.82427107
  Solvation  Ediel_sol  =         0.00000000
  ---------------------------------------------------
  free energy    TOTEN  =       -53.06681435 eV

  energy without entropy =      -53.06681435  energy(sigma->0) =      -53.06681435


--------------------------------------------------------------------------------------------------------




----------------------------------------- Iteration    1(   8)  ---------------------------------------


    POTLOK:  cpu time    0.0260: real time    0.0268
    SETDIJ:  cpu time    0.0050: real time    0.0052
     EDDAV:  cpu time    3.8324: real time    3.8595
 BZINTS: Fermi energy: -2.325224; 52.000000 electrons
         Band energy:***********;  BLOECHL correction:  0.000000
       DOS:  cpu time    0.0030: real time    0.0028
    CHARGE:  cpu time    0.0930: real time    0.0930
    MIXING:  cpu time    0.0010: real time    0.0009
    --------------------------------------------
      LOOP:  cpu time    3.9604: real time    3.9920

 eigenvalue-minimisations  :  5432
 total energy-change (2. order) : 0.5826360E+01  (-0.1232814E+01)
 number of electron      51.9999993 magnetization 
 augmentation part       -8.4015910 magnetization 

 Broyden mixing:
  rms(total) = 0.98835E-01    rms(broyden)= 0.98330E-01
  rms(prec ) = 0.98835E-01
  weight for this iteration     100.00

 eigenvalues of (default mixing * dielectric matrix)
  average eigenvalue GAMMA=   1.3555
  2.1286  1.1747  0.7631

 Free energy of the ion-electron system (eV)
  ---------------------------------------------------
  alpha Z        PSCENC =        58.00466035
  Ewald energy   TEWEN  =     58665.43712610
  -Hartree energ DENC   =    -62664.26650024
  -exchange      EXHF   =         0.00000000
  -V(xc)+E(xc)   XCENC  =       -40.58473697
  PAW double counting   =      6356.01713310    -6099.84262150
  entropy T*S    EENTRO =         0.00000000
  eigenvalues    EBANDS =     -1077.82978657
  atomic energy  EATOM  =      4755.82427107
  Solvation  Ediel_sol  =         0.00000000
  ---------------------------------------------------
  free energy    TOTEN  =       -47.24045465 eV

  energy without entropy =      -47.24045465  energy(sigma->0) =      -47.24045465


--------------------------------------------------------------------------------------------------------




----------------------------------------- Iteration    1(   9)  ---------------------------------------


    POTLOK:  cpu time    0.0260: real time    0.0267
    SETDIJ:  cpu time    0.0050: real time    0.0052
     EDDAV:  cpu time    3.5785: real time    3.5809
 BZINTS: Fermi energy: -2.327108; 52.000000 electrons
         Band energy:***********;  BLOECHL correction:  0.000000
       DOS:  cpu time    0.0030: real time    0.0029
    CHARGE:  cpu time    0.0910: real time    0.0916
    MIXING:  cpu time    0.0010: real time    0.0010
    --------------------------------------------
      LOOP:  cpu time    3.7054: real time    3.7106

 eigenvalue-minimisations  :  5040
 total energy-change (2. order) :-0.7630483E-01  (-0.8000087E-01)
 number of electron      51.9999993 magnetization 
 augmentation part       -8.3981736 magnetization 

 Broyden mixing:
  rms(total) = 0.35678E+00    rms(broyden)= 0.35677E+00
  rms(prec ) = 0.35687E+00
  weight for this iteration     100.00

 eigenvalues of (default mixing * dielectric matrix)
  average eigenvalue GAMMA=   1.2641
  1.8646  1.8646  0.7341  0.5931

 Free energy of the ion-electron system (eV)
  ---------------------------------------------------
  alpha Z        PSCENC =        58.00466035
  Ewald energy   TEWEN  =     58665.43712610
  -Hartree energ DENC   =    -62667.18683267
  -exchange      EXHF   =         0.00000000
  -V(xc)+E(xc)   XCENC  =       -40.53731338
  PAW double counting   =      6314.40589322    -6057.94213235
  entropy T*S    EENTRO =         0.00000000
  eigenvalues    EBANDS =     -1075.32243184
  atomic energy  EATOM  =      4755.82427107
  Solvation  Ediel_sol  =         0.00000000
  ---------------------------------------------------
  free energy    TOTEN  =       -47.31675949 eV

  energy without entropy =      -47.31675949  energy(sigma->0) =      -47.31675949


--------------------------------------------------------------------------------------------------------




----------------------------------------- Iteration    1(  10)  ---------------------------------------


    POTLOK:  cpu time    0.0270: real time    0.0270
    SETDIJ:  cpu time    0.0050: real time    0.0052
     EDDAV:  cpu time    4.1324: real time    4.3861
 BZINTS: Fermi energy: -2.126571; 52.000000 electrons
         Band energy:***********;  BLOECHL correction:  0.000000
       DOS:  cpu time    0.0040: real time    0.0033
    CHARGE:  cpu time    0.0900: real time    0.1052
    MIXING:  cpu time    0.0010: real time    0.0011
    --------------------------------------------
      LOOP:  cpu time    4.2604: real time    4.5306

 eigenvalue-minimisations  :  5768
 total energy-change (2. order) : 0.3287093E-03  (-0.7073584E-03)
 number of electron      51.9999993 magnetization 
 augmentation part       -8.3991057 magnetization 

 Broyden mixing:
  rms(total) = 0.85001E-01    rms(broyden)= 0.85000E-01
  rms(prec ) = 0.85308E-01
  weight for this iteration     100.00

 eigenvalues of (default mixing * dielectric matrix)
  average eigenvalue GAMMA=   1.4500
  2.2139  2.2139  0.7781  0.7781  1.2659

 Free energy of the ion-electron system (eV)
  ---------------------------------------------------
  alpha Z        PSCENC =        58.00466035
  Ewald energy   TEWEN  =     58665.43712610
  -Hartree energ DENC   =    -62669.18015842
  -exchange      EXHF   =         0.00000000
  -V(xc)+E(xc)   XCENC  =       -40.50751492
  PAW double counting   =      6223.91214504    -5967.33687315
  entropy T*S    EENTRO =         0.00000000
  eigenvalues    EBANDS =     -1073.47008686
  atomic energy  EATOM  =      4755.82427107
  Solvation  Ediel_sol  =         0.00000000
  ---------------------------------------------------
  free energy    TOTEN  =       -47.31643078 eV

  energy without entropy =      -47.31643078  energy(sigma->0) =      -47.31643078


--------------------------------------------------------------------------------------------------------




----------------------------------------- Iteration    1(  11)  ---------------------------------------


    POTLOK:  cpu time    0.0280: real time    0.0294
    SETDIJ:  cpu time    0.0050: real time    0.0053
     EDDAV:  cpu time    4.1814: real time    4.4903
 BZINTS: Fermi energy: -2.135703; 52.000000 electrons
         Band energy:***********;  BLOECHL correction:  0.000000
       DOS:  cpu time    0.0030: real time    0.0032
    CHARGE:  cpu time    0.0920: real time    0.0936
    MIXING:  cpu time    0.0020: real time    0.0011
    --------------------------------------------
      LOOP:  cpu time    4.3123: real time    4.6256

 eigenvalue-minimisations  :  5880
 total energy-change (2. order) : 0.2776558E-02  (-0.4305130E-03)
 number of electron      51.9999993 magnetization 
 augmentation part       -8.3988065 magnetization 

 Broyden mixing:
  rms(total) = 0.23759E-01    rms(broyden)= 0.23758E-01
  rms(prec ) = 0.23865E-01
  weight for this iteration     100.00

 eigenvalues of (default mixing * dielectric matrix)
  average eigenvalue GAMMA=   1.4400
  2.4969  2.1836  1.2461  1.2461  0.7336  0.7336

 Free energy of the ion-electron system (eV)
  ---------------------------------------------------
  alpha Z        PSCENC =        58.00466035
  Ewald energy   TEWEN  =     58665.43712610
  -Hartree energ DENC   =    -62675.11884520
  -exchange      EXHF   =         0.00000000
  -V(xc)+E(xc)   XCENC  =       -40.46943470
  PAW double counting   =      6156.88137372    -5899.99789119
  entropy T*S    EENTRO =         0.00000000
  eigenvalues    EBANDS =     -1067.87491437
  atomic energy  EATOM  =      4755.82427107
  Solvation  Ediel_sol  =         0.00000000
  ---------------------------------------------------
  free energy    TOTEN  =       -47.31365422 eV

  energy without entropy =      -47.31365422  energy(sigma->0) =      -47.31365422


--------------------------------------------------------------------------------------------------------




----------------------------------------- Iteration    1(  12)  ---------------------------------------


    POTLOK:  cpu time    0.0270: real time    0.0285
    SETDIJ:  cpu time    0.0050: real time    0.0059
     EDDAV:  cpu time    4.3043: real time    4.5863
 BZINTS: Fermi energy: -2.069547; 52.000000 electrons
         Band energy:***********;  BLOECHL correction:  0.000000
       DOS:  cpu time    0.0030: real time    0.0028
    CHARGE:  cpu time    0.1000: real time    0.1001
    MIXING:  cpu time    0.0010: real time    0.0011
    --------------------------------------------
      LOOP:  cpu time    4.4403: real time    4.7270

 eigenvalue-minimisations  :  6020
 total energy-change (2. order) : 0.1446707E-03  (-0.5242863E-04)
 number of electron      51.9999993 magnetization 
 augmentation part       -8.3985798 magnetization 

 Broyden mixing:
  rms(total) = 0.11766E-01    rms(broyden)= 0.11766E-01
  rms(prec ) = 0.11898E-01
  weight for this iteration     100.00

 eigenvalues of (default mixing * dielectric matrix)
  average eigenvalue GAMMA=   1.5299
  2.5620  2.5620  1.5420  1.5420  1.0006  0.7503  0.7503

 Free energy of the ion-electron system (eV)
  ---------------------------------------------------
  alpha Z        PSCENC =        58.00466035
  Ewald energy   TEWEN  =     58665.43712610
  -Hartree energ DENC   =    -62676.91585312
  -exchange      EXHF   =         0.00000000
  -V(xc)+E(xc)   XCENC  =       -40.45611761
  PAW double counting   =      6139.66306802    -5882.74478626
  entropy T*S    EENTRO =         0.00000000
  eigenvalues    EBANDS =     -1066.12587810
  atomic energy  EATOM  =      4755.82427107
  Solvation  Ediel_sol  =         0.00000000
  ---------------------------------------------------
  free energy    TOTEN  =       -47.31350955 eV

  energy without entropy =      -47.31350955  energy(sigma->0) =      -47.31350955


--------------------------------------------------------------------------------------------------------




----------------------------------------- Iteration    1(  13)  ---------------------------------------


    POTLOK:  cpu time    0.0280: real time    0.0282
    SETDIJ:  cpu time    0.0050: real time    0.0051
     EDDAV:  cpu time    4.6113: real time    4.6167
 BZINTS: Fermi energy: -2.077102; 52.000000 electrons
         Band energy:***********;  BLOECHL correction:  0.000000
       DOS:  cpu time    0.0030: real time    0.0028
    CHARGE:  cpu time    0.0930: real time    0.0936
    MIXING:  cpu time    0.0010: real time    0.0011
    --------------------------------------------
      LOOP:  cpu time    4.7423: real time    4.7500

 eigenvalue-minimisations  :  6104
 total energy-change (2. order) : 0.8071148E-04  (-0.1269011E-04)
 number of electron      51.9999993 magnetization 
 augmentation part       -8.3997638 magnetization 

 Broyden mixing:
  rms(total) = 0.28621E-02    rms(broyden)= 0.28619E-02
  rms(prec ) = 0.30755E-02
  weight for this iteration     100.00

 eigenvalues of (default mixing * dielectric matrix)
  average eigenvalue GAMMA=   1.4620
  2.7016  2.3242  1.6018  1.6018  0.7512  0.7512  1.0591  0.9053

 Free energy of the ion-electron system (eV)
  ---------------------------------------------------
  alpha Z        PSCENC =        58.00466035
  Ewald energy   TEWEN  =     58665.43712610
  -Hartree energ DENC   =    -62678.63889183
  -exchange      EXHF   =         0.00000000
  -V(xc)+E(xc)   XCENC  =       -40.44532020
  PAW double counting   =      6130.35184829    -5873.43803671
  entropy T*S    EENTRO =         0.00000000
  eigenvalues    EBANDS =     -1064.40908591
  atomic energy  EATOM  =      4755.82427107
  Solvation  Ediel_sol  =         0.00000000
  ---------------------------------------------------
  free energy    TOTEN  =       -47.31342884 eV

  energy without entropy =      -47.31342884  energy(sigma->0) =      -47.31342884


--------------------------------------------------------------------------------------------------------




----------------------------------------- Iteration    1(  14)  ---------------------------------------


    POTLOK:  cpu time    0.0270: real time    0.0272
    SETDIJ:  cpu time    0.0050: real time    0.0052
     EDDAV:  cpu time    3.9664: real time    3.9699
 BZINTS: Fermi energy: -2.083881; 52.000000 electrons
         Band energy:***********;  BLOECHL correction:  0.000000
       DOS:  cpu time    0.0030: real time    0.0028
    CHARGE:  cpu time    0.0920: real time    0.0919
    MIXING:  cpu time    0.0010: real time    0.0011
    --------------------------------------------
      LOOP:  cpu time    4.0954: real time    4.1009

 eigenvalue-minimisations  :  5628
 total energy-change (2. order) : 0.4518770E-06  (-0.2079672E-05)
 number of electron      51.9999993 magnetization 
 augmentation part       -8.3993386 magnetization 

 Broyden mixing:
  rms(total) = 0.11251E-02    rms(broyden)= 0.11251E-02
  rms(prec ) = 0.14150E-02
  weight for this iteration     100.00

 eigenvalues of (default mixing * dielectric matrix)
  average eigenvalue GAMMA=   1.5601
  2.9823  2.6302  2.2189  1.3618  1.3618  0.7526  0.7526  1.0404  0.9404

 Free energy of the ion-electron system (eV)
  ---------------------------------------------------
  alpha Z        PSCENC =        58.00466035
  Ewald energy   TEWEN  =     58665.43712610
  -Hartree energ DENC   =    -62679.60496993
  -exchange      EXHF   =         0.00000000
  -V(xc)+E(xc)   XCENC  =       -40.44192848
  PAW double counting   =      6128.01415489    -5871.10364930
[...]
      LOOP:  cpu time    4.2174: real time    4.2226

 Broyden mixing:
  rms(total) = 0.14351E-04    rms(broyden)= 0.14350E-04
  rms(prec ) = 0.16116E-04
  weight for this iteration     100.00

 eigenvalues of (default mixing * dielectric matrix)
  average eigenvalue GAMMA=   2.4220
  7.8426  6.9971  3.8324  3.7238  2.5186  2.5186  2.0319  1.7319  1.5932  1.0231
  0.9748  0.9748  0.7868  0.6723  0.6469  0.8832

 Free energy of the ion-electron system (eV)
  ---------------------------------------------------
  -Hartree energ DENC   =        -0.31460016
  -V(xc)+E(xc)   XCENC  =         0.00551413
  PAW double counting   =         0.01090494       -0.01082414
  entropy T*S    EENTRO =         0.00000000
  eigenvalues    EBANDS =        -0.07789989
  ---------------------------------------------------
  free energy    TOTEN  =        -0.38690512 eV

  energy without entropy =       -0.38690512


----------------------------------------- Iteration    3(  19)  ---------------------------------------


   POT+DIJ:  cpu time    0.0700: real time    0.0701
    HAMIL1:  cpu time    0.6889: real time    0.6902
    LRDIAG:  cpu time    0.1250: real time    0.1243
    LRDIIS:  cpu time    2.8256: real time    2.8273
    LRDIAG:  cpu time    0.1190: real time    0.1190
    MIXING:  cpu time    0.0020: real time    0.0016
    --------------------------------------------
      LOOP:  cpu time    4.0624: real time    4.0672

 Broyden mixing:
  rms(total) = 0.50925E-05    rms(broyden)= 0.50919E-05
  rms(prec ) = 0.57435E-05
  weight for this iteration     100.00

 eigenvalues of (default mixing * dielectric matrix)
  average eigenvalue GAMMA=   2.3550
  7.9662  7.1306  4.1918  3.5772  2.5328  2.5328  1.8939  1.8598  1.5633  1.0339
  0.9725  0.9725  0.7868  0.6723  0.6469  0.8508  0.8508

 Free energy of the ion-electron system (eV)
  ---------------------------------------------------
  -Hartree energ DENC   =        -0.31460088
  -V(xc)+E(xc)   XCENC  =         0.00551402
  PAW double counting   =         0.01090468       -0.01082393
  entropy T*S    EENTRO =         0.00000000
  eigenvalues    EBANDS =        -0.07789734
  ---------------------------------------------------
  free energy    TOTEN  =        -0.38690345 eV

  energy without entropy =       -0.38690345


----------------------------------------- Iteration    3(  20)  ---------------------------------------


   POT+DIJ:  cpu time    0.0700: real time    0.0703
    HAMIL1:  cpu time    0.6889: real time    0.6891
    LRDIAG:  cpu time    0.1250: real time    0.1246
    LRDIIS:  cpu time    3.0385: real time    3.0402
    LRDIAG:  cpu time    0.1230: real time    0.1233
    MIXING:  cpu time    0.0020: real time    0.0016
    --------------------------------------------
      LOOP:  cpu time    4.2813: real time    4.2867

 Broyden mixing:
  rms(total) = 0.33360E-05    rms(broyden)= 0.33357E-05
  rms(prec ) = 0.38861E-05
  weight for this iteration     100.00

 eigenvalues of (default mixing * dielectric matrix)
  average eigenvalue GAMMA=   2.4850
  8.4801  7.5573  4.8456  3.8368  2.8282  2.8282  2.1350  2.1350  1.6349  1.6349
  1.0068  1.0068  0.9567  0.9567  0.6723  0.6469  0.7867  0.7812

 Free energy of the ion-electron system (eV)
  ---------------------------------------------------
  -Hartree energ DENC   =        -0.31460027
  -V(xc)+E(xc)   XCENC  =         0.00551385
  PAW double counting   =         0.01090709       -0.01082635
  entropy T*S    EENTRO =         0.00000000
  eigenvalues    EBANDS =        -0.07789632
  ---------------------------------------------------
  free energy    TOTEN  =        -0.38690201 eV

  energy without entropy =       -0.38690201


----------------------------------------- Iteration    3(  21)  ---------------------------------------


   POT+DIJ:  cpu time    0.0700: real time    0.0707
    HAMIL1:  cpu time    0.6899: real time    0.6907
    LRDIAG:  cpu time    0.1260: real time    0.1256
    LRDIIS:  cpu time    2.7896: real time    2.7916
    LRDIAG:  cpu time    0.1190: real time    0.1189
    MIXING:  cpu time    0.0020: real time    0.0018
    --------------------------------------------
      LOOP:  cpu time    4.0344: real time    4.0385

 Broyden mixing:
  rms(total) = 0.18964E-05    rms(broyden)= 0.18961E-05
  rms(prec ) = 0.20138E-05
  weight for this iteration     100.00

 eigenvalues of (default mixing * dielectric matrix)
  average eigenvalue GAMMA=   2.4056
  8.5735  7.6018  4.8673  3.8023  2.8639  2.8639  2.1279  2.1279  1.6397  1.6329
  0.6723  0.6469  1.0193  0.9860  0.9860  0.7867  0.8322  0.8377  0.8377

 Free energy of the ion-electron system (eV)
  ---------------------------------------------------
  -Hartree energ DENC   =        -0.31459984
  -V(xc)+E(xc)   XCENC  =         0.00551341
  PAW double counting   =         0.01090891       -0.01082819
  entropy T*S    EENTRO =         0.00000000
  eigenvalues    EBANDS =        -0.07789779
  ---------------------------------------------------
  free energy    TOTEN  =        -0.38690350 eV

  energy without entropy =       -0.38690350


----------------------------------------- Iteration    3(  22)  ---------------------------------------


   POT+DIJ:  cpu time    0.0700: real time    0.0703
    HAMIL1:  cpu time    0.6879: real time    0.6888
    LRDIAG:  cpu time    0.1240: real time    0.1243
    LRDIIS:  cpu time    2.5946: real time    2.5961
    LRDIAG:  cpu time    0.1190: real time    0.1189
    MIXING:  cpu time    0.0020: real time    0.0018
    --------------------------------------------
      LOOP:  cpu time    3.8364: real time    3.8412

 Broyden mixing:
  rms(total) = 0.11737E-05    rms(broyden)= 0.11737E-05
  rms(prec ) = 0.12763E-05
  weight for this iteration     100.00

 eigenvalues of (default mixing * dielectric matrix)
  average eigenvalue GAMMA=   2.5036
  9.0226  7.6615  5.4606  4.1880  3.0236  3.0236  2.3273  2.3273  1.8608  1.8001
  1.5666  0.6723  0.6469  1.0237  1.0237  0.9945  0.9587  0.9212  0.7868  0.7820

 Free energy of the ion-electron system (eV)
  ---------------------------------------------------
  -Hartree energ DENC   =        -0.31460016
  -V(xc)+E(xc)   XCENC  =         0.00551339
  PAW double counting   =         0.01090830       -0.01082757
  entropy T*S    EENTRO =         0.00000000
  eigenvalues    EBANDS =        -0.07789743
  ---------------------------------------------------
  free energy    TOTEN  =        -0.38690348 eV

  energy without entropy =       -0.38690348


----------------------------------------- Iteration    3(  23)  ---------------------------------------


   POT+DIJ:  cpu time    0.0690: real time    0.0702
    HAMIL1:  cpu time    0.6899: real time    0.6894
    LRDIAG:  cpu time    0.1240: real time    0.1245
    LRDIIS:  cpu time    2.7076: real time    2.7092
    LRDIAG:  cpu time    0.1190: real time    0.1190
    MIXING:  cpu time    0.0020: real time    0.0018
    --------------------------------------------
      LOOP:  cpu time    3.9294: real time    3.9340

 Broyden mixing:
  rms(total) = 0.59453E-06    rms(broyden)= 0.59434E-06
  rms(prec ) = 0.61696E-06
  weight for this iteration     100.00

 eigenvalues of (default mixing * dielectric matrix)
  average eigenvalue GAMMA=   2.4617
  9.1238  7.6497  5.6114  4.2256  3.1979  2.7976  2.5358  2.1961  1.7691  1.7691
  1.4138  1.4138  1.1469  1.0194  1.0120  0.9637  0.9637  0.6723  0.6469  0.7868
  0.7802

 Free energy of the ion-electron system (eV)
  ---------------------------------------------------
  -Hartree energ DENC   =        -0.31460070
  -V(xc)+E(xc)   XCENC  =         0.00551334
  PAW double counting   =         0.01090768       -0.01082694
  entropy T*S    EENTRO =         0.00000000
  eigenvalues    EBANDS =        -0.07789630
  ---------------------------------------------------
  free energy    TOTEN  =        -0.38690293 eV

  energy without entropy =       -0.38690293


------------------------ aborting loop because EDIFF is reached ----------------------------------------


 change of polarisation eV/A/(eV/A) component  3 :    -0.004     0.001     0.760
 dielectric tensor                  component  3 :    -0.002     0.000     1.288


--------------------------------------------------------------------------------------------------------


    FORLOC:  cpu time    0.0020: real time    0.0021
    FORNL :  cpu time    0.3919: real time    0.3921
    STRESS:  cpu time    2.1057: real time    2.1071
    FORCOR:  cpu time    0.0280: real time    0.0274
    OFIELD:  cpu time    0.0000: real time    0.0002

  Hirshfeld charges:
            ion         q(e)     
   ------------------------------
      1     W           0.285
      2     W           0.285
      3     Se         -0.142
      4     Se         -0.143
      5     Se         -0.143
      6     Se         -0.142

  Tkatchenko/Scheffler method for vdW energy calculation
  ---------------------------------------------------------------------------------------------

  Parameters of vdW forcefield:
            C6ts              R0ts           ALPHAts        RELVOL
            (au)              (au)            (au)                
   ---------------------------------------------------------------
   W         896.464          4.120         73.046          1.028
   W         896.464          4.120         73.046          1.028
   Se        213.916          4.056         25.232          1.009
   Se        209.412          4.042         24.965          0.999
   Se        209.413          4.042         24.965          0.999
   Se        213.916          4.056         25.232          1.009
  Edisp (eV):   -1.50742
    FORVDW:  cpu time    0.1540: real time    0.1544
    FORLOC:  cpu time    0.0020: real time    0.0021
    FORNL :  cpu time    0.3919: real time    0.3921
    STRESS:  cpu time    2.1227: real time    2.1226
    FORCOR:  cpu time    0.0270: real time    0.0277
    OFIELD:  cpu time    0.0010: real time    0.0002

  Hirshfeld charges:
            ion         q(e)     
   ------------------------------
      1     W           0.285
      2     W           0.285
      3     Se         -0.142
      4     Se         -0.143
      5     Se         -0.143
      6     Se         -0.142

  Tkatchenko/Scheffler method for vdW energy calculation
  ---------------------------------------------------------------------------------------------

  Parameters of vdW forcefield:
            C6ts              R0ts           ALPHAts        RELVOL
            (au)              (au)            (au)                
   ---------------------------------------------------------------
   W         896.464          4.120         73.046          1.028
   W         896.464          4.120         73.046          1.028
   Se        213.916          4.056         25.232          1.009
   Se        209.413          4.042         24.965          0.999
   Se        209.412          4.042         24.965          0.999
   Se        213.916          4.056         25.232          1.009
  Edisp (eV):   -1.50742
    FORVDW:  cpu time    0.1530: real time    0.1537
    FORNLD:  cpu time    1.6418: real time    1.6415

 PIEZOELECTRIC TENSOR FIELD DIRECTION 3  (e Angst)
 -----------------------------------------------------------------------------
     0.00099 -0.00000 -0.00000           ( -0.00000  0.00000 -0.00000)
    -0.00000  0.00099  0.00000           (  0.00000 -0.00000  0.00000)
    -0.00000  0.00000 -0.00045           ( -0.00000  0.00000  0.00000)

 PIEZOELECTRIC TENSOR FIELD DIRECTION 3  (C/m^2)
 -----------------------------------------------------------------------------
     0.00003 -0.00000 -0.00000
    -0.00000  0.00003  0.00000
    -0.00000  0.00000 -0.00002


      POSITION         DIRECTION 3           BORN EFFECTIVE CHARGE    (rigid.aug.   ionic)
 -----------------------------------------------------------------------------------------
     -0.00000      0.95811     21.75500     0.00000  0.00000 -4.32569 (  1.95584 14.00000)
      1.65950      1.91623     28.24500     0.00000  0.00000 -4.32704 (  1.95584 14.00000)
      1.65950      1.91623     23.43428    -0.00000  0.00000  0.07369 (  1.12259  6.00000)
      1.65950      1.91623     20.07572     0.00000  0.00000  0.17867 (  1.12106  6.00000)
     -0.00000      0.95811     29.92428     0.00000 -0.00000  0.17213 (  1.12106  6.00000)
     -0.00000      0.95811     26.56572     0.00000  0.00000  0.06307 (  1.12259  6.00000)
 -----------------------------------------------------------------------------------------
    total drift (improves with k-points):   0.00000  0.00000 -8.16518




--------------------------------------------------------------------------------------------------------


  LATTYP: Found a hexagonal cell.
 ALAT       =     3.3190066245
 C/A-ratio  =    15.0647484797
  
  Lattice vectors:
  
 A1 = (   3.3190066245,   0.0000000000,   0.0000000000)
 A2 = (  -1.6595033122,   2.8743440521,   0.0000000000)
 A3 = (   0.0000000000,   0.0000000000,  50.0000000000)


Analysis of symmetry for initial positions (statically):
=====================================================================
 Subroutine PRICEL returns:
 Original cell was already a primitive cell.
 

 Routine SETGRP: Setting up the symmetry group for a 
 hexagonal supercell.


 Subroutine GETGRP returns: Found 12 space group operations
 (whereof  4 operations were pure point group operations)
 out of a pool of 24 trial point group operations.


The static configuration has the point symmetry C_2h.
 The point group associated with its full space group is D_3d.


Analysis of symmetry for dynamics (positions and initial velocities):
=====================================================================
 Subroutine PRICEL returns:
 Original cell was already a primitive cell.
 

 Routine SETGRP: Setting up the symmetry group for a 
 hexagonal supercell.


 Subroutine GETGRP returns: Found 12 space group operations
 (whereof  4 operations were pure point group operations)
 out of a pool of 24 trial point group operations.


The dynamic configuration has the point symmetry C_2h.
 The point group associated with its full space group is D_3d.


 Subroutine INISYM returns: Found 12 space group operations
 (whereof  4 operations are pure point group operations),
 and found     1 'primitive' translations



 MACROSCOPIC STATIC DIELECTRIC TENSOR (including local field effects in DFT)
 ------------------------------------------------------
           4.712538     0.000000     0.000000
          -0.000000     4.712538     0.000000
           0.000000     0.000000     1.288352
 ------------------------------------------------------



--------------------------------------------------------------------------------------------------------


  LATTYP: Found a hexagonal cell.
 ALAT       =     3.3190066245
 C/A-ratio  =    15.0647484797
  
  Lattice vectors:
  
 A1 = (   3.3190066245,   0.0000000000,   0.0000000000)
 A2 = (  -1.6595033122,   2.8743440521,   0.0000000000)
 A3 = (   0.0000000000,   0.0000000000,  50.0000000000)


Analysis of symmetry for initial positions (statically):
=====================================================================
 Subroutine PRICEL returns:
 Original cell was already a primitive cell.
 

 Routine SETGRP: Setting up the symmetry group for a 
 hexagonal supercell.


 Subroutine GETGRP returns: Found 12 space group operations
 (whereof  4 operations were pure point group operations)
 out of a pool of 24 trial point group operations.


The static configuration has the point symmetry C_2h.
 The point group associated with its full space group is D_3d.


Analysis of symmetry for dynamics (positions and initial velocities):
=====================================================================
 Subroutine PRICEL returns:
 Original cell was already a primitive cell.
 

 Routine SETGRP: Setting up the symmetry group for a 
 hexagonal supercell.


 Subroutine GETGRP returns: Found 12 space group operations
 (whereof  4 operations were pure point group operations)
 out of a pool of 24 trial point group operations.


The dynamic configuration has the point symmetry C_2h.
 The point group associated with its full space group is D_3d.


 Subroutine INISYM returns: Found 12 space group operations
 (whereof  4 operations are pure point group operations),
 and found     1 'primitive' translations



--------------------------------------------------------------------------------------------------------




 MACROSCOPIC STATIC DIELECTRIC TENSOR (including local field effects in DFT)
 ------------------------------------------------------
           4.712538     0.000000     0.000000
          -0.000000     4.712538     0.000000
           0.000000     0.000000     1.288352
 ------------------------------------------------------


 PIEZOELECTRIC TENSOR  for field in x, y, z        (e  Angst)
          XX          YY          ZZ          XY          YZ          ZX
  --------------------------------------------------------------------------------
  x    -0.00356     0.00489    -0.00032     0.00000     0.00014     0.00000
  y    -0.00490     0.00828     0.00192     0.00000     0.00036     0.00000
  z     0.00099     0.00099    -0.00045    -0.00000     0.00000    -0.00000

 PIEZOELECTRIC TENSOR  for field in x, y, z        (C/m^2)
          XX          YY          ZZ          XY          YZ          ZX
  --------------------------------------------------------------------------------
  x     0.00000     0.00000     0.00000     0.00000     0.00000     0.00000
  y     0.00000     0.00000     0.00000     0.00000     0.00000     0.00000
  z     0.00000     0.00000     0.00000     0.00000     0.00000     0.00000
 
 BORN EFFECTIVE CHARGES (in e, cummulative output)
 -------------------------------------------------
 ion    1
    1    -1.14398    -0.00022     0.00004
    2     0.00000    -1.14471    -0.00002
    3     0.00000     0.00000    -4.32569
 ion    2
    1    -1.14398     0.00022    -0.00004
    2     0.00000    -1.14331     0.00003
    3     0.00000     0.00000    -4.32704
 ion    3
    1     0.58496    -0.00164     0.00014
    2     0.00000     0.58537     0.00104
    3    -0.00000     0.00000     0.07369
 ion    4
    1     0.59219    -0.00157    -0.00007
    2    -0.00000     0.59257    -0.00066
    3     0.00000     0.00000     0.17867
 ion    5
    1     0.59219     0.00157     0.00007
    2    -0.00000     0.59180     0.00065
    3     0.00000    -0.00000     0.17213
 ion    6
    1     0.58496     0.00164    -0.00014
    2     0.00000     0.58454    -0.00102
    3     0.00000     0.00000     0.06307


--------------------------------------------------------------------------------------------------------


 writing wavefunctions
     LOOP+:  cpu time  804.1577: real time  807.3634
    4ORBIT:  cpu time    0.0000: real time    0.0000
 BZINTS: Fermi energy: -1.837945; 52.000000 electrons
         Band energy:***********;  BLOECHL correction:  0.000000

 total amount of memory used by VASP on root node   142786. kBytes
========================================================================

   base      :      30000. kBytes
   nonl-proj :      95839. kBytes
   fftplans  :       1943. kBytes
   grid      :       7351. kBytes
   one-center:        194. kBytes
   wavefun   :       7459. kBytes
 
  
  
 General timing and accounting informations for this job:
 ========================================================
  
                  Total CPU time used (sec):      806.493
                            User time (sec):      785.756
                          System time (sec):       20.738
                         Elapsed time (sec):      811.023
  
                   Maximum memory used (kb):      420352.
                   Average memory used (kb):           0.
  
                          Minor page faults:      5209631
                          Major page faults:            8
                 Voluntary context switches:         4421
