  15  15   0   0
  0.2930125E+02  0.3185946E-09  0.3185946E-09  0.5000000E-08  0.5000000E-15
  1.000000000000000E-004
  CAR 
 unknown system                          
     11.51950164    -75.91644288  301      2.84877048      1.00000000
    -75.916  0.0000E+00  0.0000E+00
    -75.625  0.0000E+00  0.0000E+00
    -75.334  0.0000E+00  0.0000E+00
    -75.042  0.0000E+00  0.0000E+00
    -74.751  0.0000E+00  0.0000E+00
    -74.459  0.0000E+00  0.0000E+00
    -74.168  0.0000E+00  0.0000E+00
    -73.876  0.0000E+00  0.0000E+00
    -73.585  0.0000E+00  0.0000E+00
    -73.293  0.0000E+00  0.0000E+00
    -73.002  0.0000E+00  0.0000E+00
    -72.710  0.0000E+00  0.0000E+00
    -72.419  0.0000E+00  0.0000E+00
    -72.128  0.0000E+00  0.0000E+00
    -71.836  0.0000E+00  0.1000E+02
    -71.545  0.0000E+00  0.1000E+02
    -71.253  0.0000E+00  0.1000E+02
    -70.962  0.0000E+00  0.1000E+02
    -70.670  0.0000E+00  0.1000E+02
    -70.379  0.0000E+00  0.1000E+02
    -70.087  0.0000E+00  0.1000E+02
    -69.796  0.0000E+00  0.1000E+02
    -69.504  0.0000E+00  0.1000E+02
    -69.213  0.0000E+00  0.1000E+02
    -68.922  0.0000E+00  0.1000E+02
    -68.630  0.0000E+00  0.1000E+02
    -68.339  0.0000E+00  0.1000E+02
    -68.047  0.0000E+00  0.1000E+02
    -67.756  0.0000E+00  0.1000E+02
    -67.464  0.0000E+00  0.1000E+02
    -67.173  0.0000E+00  0.1000E+02
    -66.881  0.0000E+00  0.1000E+02
    -66.590  0.0000E+00  0.1000E+02
    -66.298  0.0000E+00  0.1000E+02
    -66.007  0.0000E+00  0.1000E+02
    -65.716  0.0000E+00  0.1000E+02
    -65.424  0.0000E+00  0.1000E+02
    -65.133  0.0000E+00  0.1000E+02
    -64.841  0.0000E+00  0.1000E+02
    -64.550  0.0000E+00  0.1000E+02
    -64.258  0.0000E+00  0.1000E+02
    -63.967  0.0000E+00  0.1000E+02
    -63.675  0.0000E+00  0.1000E+02
    -63.384  0.0000E+00  0.1000E+02
    -63.093  0.0000E+00  0.1000E+02
    -62.801  0.0000E+00  0.1000E+02
    -62.510  0.0000E+00  0.1000E+02
    -62.218  0.0000E+00  0.1000E+02
    -61.927  0.0000E+00  0.1000E+02
    -61.635  0.0000E+00  0.1000E+02
    -61.344  0.0000E+00  0.1000E+02
    -61.052  0.0000E+00  0.1000E+02
    -60.761  0.0000E+00  0.1000E+02
    -60.469  0.0000E+00  0.1000E+02
    -60.178  0.0000E+00  0.1000E+02
    -59.887  0.0000E+00  0.1000E+02
    -59.595  0.0000E+00  0.1000E+02
    -59.304  0.0000E+00  0.1000E+02
    -59.012  0.0000E+00  0.1000E+02
    -58.721  0.0000E+00  0.1000E+02
    -58.429  0.0000E+00  0.1000E+02
    -58.138  0.0000E+00  0.1000E+02
    -57.846  0.0000E+00  0.1000E+02
    -57.555  0.0000E+00  0.1000E+02
    -57.263  0.0000E+00  0.1000E+02
    -56.972  0.0000E+00  0.1000E+02
    -56.681  0.0000E+00  0.1000E+02
    -56.389  0.0000E+00  0.1000E+02
    -56.098  0.0000E+00  0.1000E+02
    -55.806  0.0000E+00  0.1000E+02
    -55.515  0.0000E+00  0.1000E+02
    -55.223  0.0000E+00  0.1000E+02
    -54.932  0.0000E+00  0.1000E+02
    -54.640  0.0000E+00  0.1000E+02
    -54.349  0.0000E+00  0.1000E+02
    -54.057  0.0000E+00  0.1000E+02
    -53.766  0.0000E+00  0.1000E+02
    -53.475  0.0000E+00  0.1000E+02
    -53.183  0.0000E+00  0.1000E+02
    -52.892  0.0000E+00  0.1000E+02
    -52.600  0.0000E+00  0.1000E+02
    -52.309  0.0000E+00  0.1000E+02
    -52.017  0.0000E+00  0.1000E+02
    -51.726  0.0000E+00  0.1000E+02
    -51.434  0.0000E+00  0.1000E+02
    -51.143  0.0000E+00  0.1000E+02
    -50.851  0.0000E+00  0.1000E+02
    -50.560  0.0000E+00  0.1000E+02
    -50.269  0.0000E+00  0.1000E+02
    -49.977  0.0000E+00  0.1000E+02
    -49.686  0.0000E+00  0.1000E+02
    -49.394  0.0000E+00  0.1000E+02
    -49.103  0.0000E+00  0.1000E+02
    -48.811  0.0000E+00  0.1000E+02
    -48.520  0.0000E+00  0.1000E+02
    -48.228  0.0000E+00  0.1000E+02
    -47.937  0.0000E+00  0.1000E+02
    -47.645  0.0000E+00  0.1000E+02
    -47.354  0.0000E+00  0.1000E+02
    -47.063  0.0000E+00  0.1000E+02
    -46.771  0.0000E+00  0.1000E+02
    -46.480  0.0000E+00  0.1000E+02
    -46.188  0.0000E+00  0.1000E+02
    -45.897  0.0000E+00  0.1000E+02
    -45.605  0.0000E+00  0.1000E+02
    -45.314  0.0000E+00  0.1000E+02
    -45.022  0.0000E+00  0.1000E+02
    -44.731  0.0000E+00  0.1000E+02
    -44.440  0.0000E+00  0.1000E+02
    -44.148  0.0000E+00  0.1000E+02
    -43.857  0.0000E+00  0.1000E+02
    -43.565  0.0000E+00  0.1000E+02
    -43.274  0.0000E+00  0.1000E+02
    -42.982  0.0000E+00  0.1000E+02
    -42.691  0.0000E+00  0.1000E+02
    -42.399  0.0000E+00  0.1000E+02
    -42.108  0.0000E+00  0.1000E+02
    -41.816  0.0000E+00  0.1000E+02
    -41.525  0.0000E+00  0.1000E+02
    -41.234  0.0000E+00  0.1000E+02
    -40.942  0.0000E+00  0.1000E+02
    -40.651  0.0000E+00  0.1000E+02
    -40.359  0.0000E+00  0.1000E+02
    -40.068  0.0000E+00  0.1000E+02
    -39.776  0.0000E+00  0.1000E+02
    -39.485  0.0000E+00  0.1000E+02
    -39.193  0.0000E+00  0.1000E+02
    -38.902  0.0000E+00  0.1000E+02
    -38.610  0.0000E+00  0.1000E+02
    -38.319  0.0000E+00  0.1000E+02
    -38.028  0.0000E+00  0.1000E+02
    -37.736  0.0000E+00  0.1000E+02
    -37.445  0.0000E+00  0.1000E+02
    -37.153  0.0000E+00  0.1000E+02
    -36.862  0.0000E+00  0.1000E+02
    -36.570  0.0000E+00  0.1000E+02
    -36.279  0.1086E+03  0.1354E+02
    -35.987  0.0000E+00  0.4000E+02
    -35.696  0.0000E+00  0.4000E+02
    -35.404  0.0000E+00  0.4000E+02
    -35.113  0.0000E+00  0.4000E+02
    -34.822  0.0000E+00  0.4000E+02
    -34.530  0.0000E+00  0.4000E+02
    -34.239  0.0000E+00  0.4000E+02
    -33.947  0.0000E+00  0.4000E+02
    -33.656  0.0000E+00  0.4000E+02
    -33.364  0.0000E+00  0.4000E+02
    -33.073  0.0000E+00  0.4000E+02
    -32.781  0.0000E+00  0.4000E+02
    -32.490  0.0000E+00  0.4000E+02
    -32.198  0.0000E+00  0.4000E+02
    -31.907  0.0000E+00  0.4000E+02
    -31.616  0.0000E+00  0.4000E+02
    -31.324  0.0000E+00  0.4000E+02
    -31.033  0.0000E+00  0.4000E+02
    -30.741  0.0000E+00  0.4000E+02
    -30.450  0.0000E+00  0.4000E+02
    -30.158  0.0000E+00  0.4000E+02
    -29.867  0.0000E+00  0.4000E+02
    -29.575  0.0000E+00  0.4000E+02
    -29.284  0.0000E+00  0.4000E+02
    -28.992  0.0000E+00  0.4000E+02
    -28.701  0.0000E+00  0.4000E+02
    -28.410  0.0000E+00  0.4000E+02
    -28.118  0.0000E+00  0.4000E+02
    -27.827  0.0000E+00  0.4000E+02
    -27.535  0.0000E+00  0.4000E+02
    -27.244  0.0000E+00  0.4000E+02
    -26.952  0.0000E+00  0.4000E+02
    -26.661  0.0000E+00  0.4000E+02
    -26.369  0.0000E+00  0.4000E+02
    -26.078  0.0000E+00  0.4000E+02
    -25.787  0.0000E+00  0.4000E+02
    -25.495  0.0000E+00  0.4000E+02
    -25.204  0.0000E+00  0.4000E+02
    -24.912  0.0000E+00  0.4000E+02
    -24.621  0.0000E+00  0.4000E+02
    -24.329  0.0000E+00  0.4000E+02
    -24.038  0.0000E+00  0.4000E+02
    -23.746  0.0000E+00  0.4000E+02
    -23.455  0.0000E+00  0.4000E+02
    -23.163  0.0000E+00  0.4000E+02
    -22.872  0.0000E+00  0.4000E+02
    -22.581  0.0000E+00  0.4000E+02
    -22.289  0.0000E+00  0.4000E+02
    -21.998  0.0000E+00  0.4000E+02
    -21.706  0.0000E+00  0.4000E+02
    -21.415  0.0000E+00  0.4000E+02
    -21.123  0.0000E+00  0.4000E+02
    -20.832  0.0000E+00  0.4000E+02
    -20.540  0.0000E+00  0.4000E+02
    -20.249  0.0000E+00  0.4000E+02
    -19.957  0.0000E+00  0.4000E+02
    -19.666  0.0000E+00  0.4000E+02
    -19.375  0.0000E+00  0.4000E+02
    -19.083  0.0000E+00  0.4000E+02
    -18.792  0.0000E+00  0.4000E+02
    -18.500  0.0000E+00  0.4000E+02
    -18.209  0.0000E+00  0.4000E+02
    -17.917  0.0000E+00  0.4000E+02
    -17.626  0.0000E+00  0.4000E+02
    -17.334  0.0000E+00  0.4000E+02
    -17.043  0.0000E+00  0.4000E+02
    -16.751  0.0000E+00  0.4000E+02
    -16.460  0.0000E+00  0.4000E+02
    -16.169  0.0000E+00  0.4000E+02
    -15.877  0.0000E+00  0.4000E+02
    -15.586  0.0000E+00  0.4000E+02
    -15.294  0.0000E+00  0.4000E+02
    -15.003  0.0000E+00  0.4000E+02
    -14.711  0.0000E+00  0.4000E+02
    -14.420  0.0000E+00  0.4000E+02
    -14.128  0.0000E+00  0.4000E+02
    -13.837  0.0000E+00  0.4000E+02
    -13.545  0.0000E+00  0.4000E+02
    -13.254  0.0000E+00  0.4000E+02
    -12.963  0.0000E+00  0.4000E+02
    -12.671  0.8334E+00  0.4003E+02
    -12.380  0.2356E+01  0.4057E+02
    -12.088  0.2521E+01  0.4127E+02
    -11.797  0.2772E+01  0.4204E+02
    -11.505  0.3112E+01  0.4290E+02
    -11.214  0.4246E+01  0.4388E+02
    -10.922  0.8264E+01  0.4573E+02
    -10.631  0.1595E+02  0.4934E+02
    -10.339  0.2264E+02  0.5505E+02
    -10.048  0.0000E+00  0.6000E+02
     -9.757  0.0000E+00  0.6000E+02
     -9.465  0.0000E+00  0.6000E+02
     -9.174  0.0000E+00  0.6000E+02
     -8.882  0.0000E+00  0.6000E+02
     -8.591  0.0000E+00  0.6000E+02
     -8.299  0.0000E+00  0.6000E+02
     -8.008  0.0000E+00  0.6000E+02
     -7.716  0.0000E+00  0.6000E+02
     -7.425  0.0000E+00  0.6000E+02
     -7.133  0.0000E+00  0.6000E+02
     -6.842  0.0000E+00  0.6000E+02
     -6.551  0.0000E+00  0.6000E+02
     -6.259  0.0000E+00  0.6000E+02
     -5.968  0.0000E+00  0.6000E+02
     -5.676  0.0000E+00  0.6000E+02
     -5.385  0.0000E+00  0.6000E+02
     -5.093  0.0000E+00  0.6000E+02
     -4.802  0.0000E+00  0.6000E+02
     -4.510  0.6025E+00  0.6007E+02
     -4.219  0.5789E+01  0.6088E+02
     -3.928  0.7648E+01  0.6279E+02
     -3.636  0.1542E+02  0.6589E+02
     -3.345  0.1149E+02  0.6973E+02
     -3.053  0.9781E+01  0.7277E+02
     -2.762  0.7348E+01  0.7493E+02
     -2.470  0.8064E+01  0.7747E+02
     -2.179  0.1189E+02  0.8180E+02
     -1.887  0.5771E+01  0.8586E+02
     -1.596  0.7586E+01  0.8791E+02
     -1.304  0.1650E+02  0.9121E+02
     -1.013  0.1109E+02  0.9680E+02
     -0.722  0.6814E+01  0.9928E+02
     -0.430  0.1070E+02  0.1018E+03
     -0.139  0.2506E+02  0.1050E+03
      0.153  0.1635E+02  0.1111E+03
      0.444  0.1325E+02  0.1151E+03
      0.736  0.6694E+01  0.1185E+03
      1.027  0.5211E+01  0.1200E+03
      1.319  0.1544E+02  0.1241E+03
      1.610  0.7961E+01  0.1271E+03
      1.902  0.4166E+01  0.1289E+03
      2.193  0.9128E+00  0.1297E+03
      2.484  0.4945E+00  0.1299E+03
      2.776  0.0000E+00  0.1300E+03
      3.067  0.0000E+00  0.1300E+03
      3.359  0.0000E+00  0.1300E+03
      3.650  0.0000E+00  0.1300E+03
      3.942  0.1989E+01  0.1302E+03
      4.233  0.8133E+01  0.1319E+03
      4.525  0.1549E+02  0.1349E+03
      4.816  0.2385E+02  0.1406E+03
      5.108  0.1684E+02  0.1470E+03
      5.399  0.1776E+02  0.1523E+03
      5.690  0.1081E+02  0.1557E+03
      5.982  0.1190E+02  0.1589E+03
      6.273  0.7100E+01  0.1613E+03
      6.565  0.8464E+01  0.1637E+03
      6.856  0.5886E+01  0.1661E+03
      7.148  0.2858E+01  0.1672E+03
      7.439  0.1393E+01  0.1679E+03
      7.731  0.0000E+00  0.1680E+03
      8.022  0.0000E+00  0.1680E+03
      8.314  0.0000E+00  0.1680E+03
      8.605  0.0000E+00  0.1680E+03
      8.896  0.0000E+00  0.1680E+03
      9.188  0.0000E+00  0.1680E+03
      9.479  0.0000E+00  0.1680E+03
      9.771  0.0000E+00  0.1680E+03
     10.062  0.0000E+00  0.1680E+03
     10.354  0.0000E+00  0.1680E+03
     10.645  0.0000E+00  0.1680E+03
     10.937  0.0000E+00  0.1680E+03
     11.228  0.0000E+00  0.1680E+03
     11.520  0.0000E+00  0.1680E+03
