       N       E                     dE             d eps       ncg     rms          rms(c)
DAV:   1     0.950028838439E+03    0.95003E+03   -0.57386E+04  7476   0.939E+02
DAV:   2    -0.754130700295E+02   -0.10254E+04   -0.10136E+04  8512   0.302E+02
DAV:   3    -0.140619149809E+03   -0.65206E+02   -0.64923E+02  8792   0.813E+01
DAV:   4    -0.142137625477E+03   -0.15185E+01   -0.15165E+01 10920   0.115E+01
DAV:   5    -0.142147164483E+03   -0.95390E-02   -0.95379E-02  8064   0.835E-01    0.172E+02
DAV:   6    -0.129479322207E+03    0.12668E+02   -0.62931E+01  7560   0.210E+01    0.156E+02
DAV:   7    -0.138824598990E+03   -0.93453E+01   -0.74114E+01  7812   0.227E+01    0.111E+02
DAV:   8    -0.127995865007E+03    0.10829E+02   -0.40967E+01  7588   0.165E+01    0.159E+00
DAV:   9    -0.128291742167E+03   -0.29588E+00   -0.30278E+00  8344   0.412E+00    0.339E+00
DAV:  10    -0.128288411031E+03    0.33311E-02   -0.72235E-02  9772   0.790E-01    0.298E+00
DAV:  11    -0.128268382403E+03    0.20029E-01   -0.58415E-02  8960   0.675E-01    0.140E+00
DAV:  12    -0.128268238912E+03    0.14349E-03   -0.10759E-02  8260   0.287E-01    0.115E+00
DAV:  13    -0.128268246102E+03   -0.71903E-05   -0.64897E-04  8204   0.736E-02    0.806E-01
DAV:  14    -0.128268151840E+03    0.94263E-04   -0.24837E-04  8848   0.438E-02    0.299E-01
DAV:  15    -0.128268122338E+03    0.29501E-04   -0.86076E-05  8120   0.230E-02    0.121E-01
DAV:  16    -0.128268120139E+03    0.21995E-05   -0.77867E-05 10080   0.214E-02    0.561E-02
DAV:  17    -0.128268154278E+03   -0.34139E-04   -0.45165E-05  8988   0.175E-02    0.195E-02
DAV:  18    -0.128268208379E+03   -0.54101E-04   -0.13869E-05  8344   0.946E-03    0.212E-02
DAV:  19    -0.128268256737E+03   -0.48358E-04   -0.40601E-06  9184   0.516E-03    0.161E-02
DAV:  20    -0.128268284659E+03   -0.27922E-04   -0.10676E-06  8288   0.291E-03    0.934E-03
DAV:  21    -0.128268305673E+03   -0.21014E-04   -0.12417E-06  7924   0.255E-03    0.751E-03
DAV:  22    -0.128268318614E+03   -0.12941E-04   -0.52674E-07  8288   0.153E-03    0.321E-03
DAV:  23    -0.128268325905E+03   -0.72913E-05   -0.11500E-07  7336   0.890E-04    0.129E-03
DAV:  24    -0.128268332682E+03   -0.67776E-05   -0.79687E-08  7252   0.654E-04    0.222E-03
DAV:  25    -0.128268335082E+03   -0.23999E-05   -0.19840E-08  6160   0.389E-04    0.163E-03
DAV:  26    -0.128268336504E+03   -0.14216E-05   -0.11755E-08  6440   0.337E-04    0.107E-03
DAV:  27    -0.128268336899E+03   -0.39524E-06   -0.70263E-09  5908   0.239E-04    0.160E-04
DAV:  28    -0.128268336919E+03   -0.19987E-07   -0.68310E-10  6188   0.850E-05    0.820E-05
DAV:  29    -0.128268336946E+03   -0.26415E-07   -0.35409E-10  5712   0.567E-05    0.765E-05
DAV:  30    -0.128268336961E+03   -0.15667E-07   -0.23236E-10  6160   0.445E-05    0.654E-05
DAV:  31    -0.128268336963E+03   -0.18990E-08   -0.19149E-11  5488   0.233E-05
   1 F= -.13245000E+03 E0= -.13245000E+03  d E =0.000000E+00
 Linear response reoptimize wavefunctions
DAV:   1    -0.128268336966E+03    0.41817E+01   -0.59148E-11  6216   0.363E-05
DAV:   2    -0.128268336966E+03    0.29104E-10   -0.15324E-11  5656   0.123E-05
 Linear response G [H, r] |phi>, progress :
  Direction:   1
       N       E                     dE             d eps       ncg     rms
RMM:   1    -0.571043467192E+03   -0.57104E+03    0.23205E+03 14291   0.151E+02
RMM:   2    -0.552924414257E+03    0.18119E+02   -0.29289E+02 13364   0.338E+01
RMM:   3    -0.554689416152E+03   -0.17650E+01   -0.12636E+01 13495   0.738E+00
RMM:   4    -0.554916661923E+03   -0.22725E+00   -0.85640E-01 14874   0.156E+00
RMM:   5    -0.554922138853E+03   -0.54769E-02   -0.69697E-02 15029   0.425E-01
RMM:   6    -0.554923507919E+03   -0.13691E-02   -0.72079E-03 15830   0.122E-01
RMM:   7    -0.554923573183E+03   -0.65264E-04   -0.74918E-04 16343   0.403E-02
RMM:   8    -0.554923617782E+03   -0.44599E-04   -0.27592E-04 16716   0.163E-02
RMM:   9    -0.554923612155E+03    0.56274E-05   -0.12411E-04 17104   0.952E-03
RMM:  10    -0.554923616867E+03   -0.47116E-05   -0.15684E-04 16997   0.775E-03
RMM:  11    -0.554923614021E+03    0.28452E-05   -0.12638E-04 16735   0.737E-03
RMM:  12    -0.554923616024E+03   -0.20030E-05   -0.14597E-04 16607   0.730E-03
 Linear response G [H, r] |phi>, progress :
  Direction:   2
       N       E                     dE             d eps       ncg     rms
RMM:   1    -0.579548699557E+03   -0.57955E+03    0.21107E+03 14196   0.151E+02
RMM:   2    -0.574033664759E+03    0.55150E+01   -0.29516E+02 13212   0.334E+01
RMM:   3    -0.576138654857E+03   -0.21050E+01   -0.11968E+01 13552   0.709E+00
RMM:   4    -0.576353638968E+03   -0.21498E+00   -0.90077E-01 14820   0.151E+00
RMM:   5    -0.576359363472E+03   -0.57245E-02   -0.65774E-02 15071   0.404E-01
RMM:   6    -0.576360415425E+03   -0.10520E-02   -0.80914E-03 15934   0.120E-01
RMM:   7    -0.576360471155E+03   -0.55731E-04   -0.10511E-03 16389   0.397E-02
RMM:   8    -0.576360464001E+03    0.71544E-05   -0.18978E-04 16786   0.173E-02
RMM:   9    -0.576360467433E+03   -0.34326E-05   -0.12986E-04 17093   0.110E-02
RMM:  10    -0.576360469040E+03   -0.16064E-05   -0.13325E-04 16961   0.949E-03
RMM:  11    -0.576360464686E+03    0.43535E-05   -0.87792E-05 16699   0.916E-03
RMM:  12    -0.576360463186E+03    0.15002E-05   -0.72318E-05 16605   0.910E-03
 Linear response G [H, r] |phi>, progress :
  Direction:   3
       N       E                     dE             d eps       ncg     rms
RMM:   1    -0.600457147810E+03   -0.60046E+03    0.23600E+03 13901   0.154E+02
RMM:   2    -0.565084485028E+03    0.35373E+02   -0.37013E+02 12645   0.344E+01
RMM:   3    -0.566623073050E+03   -0.15386E+01   -0.18234E+01 13422   0.815E+00
RMM:   4    -0.566894053739E+03   -0.27098E+00   -0.13233E+00 14638   0.175E+00
RMM:   5    -0.566905213375E+03   -0.11160E-01   -0.12848E-01 14460   0.467E-01
RMM:   6    -0.566906708911E+03   -0.14955E-02   -0.15848E-02 15626   0.141E-01
RMM:   7    -0.566906917537E+03   -0.20863E-03   -0.30577E-03 15891   0.467E-02
RMM:   8    -0.566906939953E+03   -0.22416E-04   -0.44865E-04 16567   0.188E-02
RMM:   9    -0.566906944663E+03   -0.47107E-05   -0.19325E-04 16817   0.106E-02
RMM:  10    -0.566906945457E+03   -0.79368E-06   -0.11888E-04 16726   0.819E-03
RMM:  11    -0.566906945267E+03    0.18964E-06   -0.10973E-04 16456   0.770E-03
RMM:  12    -0.566906945780E+03   -0.51262E-06   -0.11142E-04 16327   0.757E-03
 Linear response to external field (no local field effect), progress :
  Direction:   1
       N       E                     dE             d eps       ncg     rms          rms(c)
RMM:   1    -0.908366985603E+01   -0.90837E+01   -0.58679E+01 15236   0.604E+00
RMM:   2    -0.105447159563E+02   -0.14610E+01   -0.70728E-01 11919   0.141E+00
RMM:   3    -0.105682660649E+02   -0.23550E-01   -0.58617E-02 13262   0.323E-01
RMM:   4    -0.105691488071E+02   -0.88274E-03   -0.30316E-03 14308   0.640E-02
RMM:   5    -0.105691871261E+02   -0.38319E-04   -0.23258E-04 14097   0.163E-02
RMM:   6    -0.105691905298E+02   -0.34037E-05   -0.20798E-05 14118   0.412E-03
RMM:   7    -0.105691908874E+02   -0.35753E-06   -0.52576E-06 13706   0.147E-03
RMM:   8    -0.105691909362E+02   -0.48872E-07   -0.29481E-06 12992   0.677E-04
RMM:   9    -0.105691909443E+02   -0.80921E-08   -0.26895E-06 12024   0.512E-04
RMM:  10    -0.105691909467E+02   -0.24039E-08   -0.26371E-06 10371   0.468E-04
RMM:  11    -0.105691909462E+02    0.55103E-09   -0.26188E-06  9807   0.461E-04
RMM:  12    -0.105691909458E+02    0.36364E-09   -0.26104E-06  9550   0.458E-04
 Linear response to external field (no local field effect), progress :
  Direction:   2
       N       E                     dE             d eps       ncg     rms          rms(c)
RMM:   1    -0.891099273040E+01   -0.89110E+01   -0.56077E+01 14974   0.611E+00
RMM:   2    -0.989611622046E+01   -0.98512E+00   -0.61706E-01 11994   0.138E+00
RMM:   3    -0.991573306721E+01   -0.19617E-01   -0.53762E-02 13166   0.325E-01
RMM:   4    -0.991661780988E+01   -0.88474E-03   -0.31584E-03 14258   0.658E-02
RMM:   5    -0.991666227375E+01   -0.44464E-04   -0.28241E-04 14008   0.178E-02
RMM:   6    -0.991666641766E+01   -0.41439E-05   -0.25913E-05 14024   0.453E-03
RMM:   7    -0.991666687790E+01   -0.46024E-06   -0.65356E-06 13633   0.166E-03
RMM:   8    -0.991666695022E+01   -0.72316E-07   -0.36341E-06 13002   0.791E-04
RMM:   9    -0.991666696499E+01   -0.14774E-07   -0.32741E-06 11909   0.594E-04
RMM:  10    -0.991666696638E+01   -0.13926E-08   -0.31773E-06 10646   0.539E-04
RMM:  11    -0.991666696711E+01   -0.72716E-09   -0.31653E-06  9966   0.528E-04
RMM:  12    -0.991666696748E+01   -0.37325E-09   -0.31656E-06  9662   0.526E-04
 Linear response to external field (no local field effect), progress :
  Direction:   3
       N       E                     dE             d eps       ncg     rms          rms(c)
RMM:   1    -0.555897638618E+01   -0.55590E+01   -0.27986E+01 14736   0.557E+00
RMM:   2    -0.599014514974E+01   -0.43117E+00   -0.34015E-01 11466   0.114E+00
RMM:   3    -0.599801620051E+01   -0.78711E-02   -0.35183E-02 12864   0.282E-01
RMM:   4    -0.599842336893E+01   -0.40717E-03   -0.16145E-03 14052   0.552E-02
RMM:   5    -0.599844456698E+01   -0.21198E-04   -0.13712E-04 13563   0.142E-02
RMM:   6    -0.599844626718E+01   -0.17002E-05   -0.12289E-05 13892   0.360E-03
RMM:   7    -0.599844643131E+01   -0.16413E-06   -0.41372E-06 13315   0.132E-03
RMM:   8    -0.599844644889E+01   -0.17587E-07   -0.32560E-06 12718   0.679E-04
RMM:   9    -0.599844645250E+01   -0.36030E-08   -0.31542E-06 11526   0.537E-04
RMM:  10    -0.599844645397E+01   -0.14766E-08   -0.31708E-06 10282   0.507E-04
RMM:  11    -0.599844645352E+01    0.45423E-09   -0.31487E-06  9670   0.500E-04
 Linear response to external field, progress :
  Direction:   1
       N       E                     dE             d eps       ncg     rms          rms(c)
RMM:   1    -0.899700462382E+01   -0.89970E+01   -0.57375E+01 66372   0.603E+00
RMM:   2    -0.102207947457E+02   -0.12238E+01   -0.66684E-01 52577   0.138E+00    0.570E+00
RMM:   3    -0.989161313432E+01    0.32918E+00   -0.41981E-01 51670   0.186E+00    0.314E+00
RMM:   4    -0.100928987703E+02   -0.20129E+00   -0.32753E-01 51559   0.175E+00    0.853E-01
RMM:   5    -0.101734936914E+02   -0.80595E-01   -0.13862E-02 51812   0.367E-01    0.819E-02
RMM:   6    -0.101815947017E+02   -0.81010E-02   -0.12106E-03 57868   0.792E-02    0.491E-02
RMM:   7    -0.101838655300E+02   -0.22708E-02    0.42159E-04 55781   0.325E-02    0.142E-02
RMM:   8    -0.101859095348E+02   -0.20440E-02   -0.18946E-04 59291   0.101E-02    0.593E-03
RMM:   9    -0.101862559150E+02   -0.34638E-03    0.31204E-05 60314   0.342E-03    0.181E-03
RMM:  10    -0.101863281048E+02   -0.72190E-04   -0.25998E-05 59427   0.139E-03    0.526E-04
RMM:  11    -0.101863670370E+02   -0.38932E-04   -0.30920E-06 57312   0.842E-04    0.150E-04
RMM:  12    -0.101863723897E+02   -0.53527E-05   -0.68473E-06 59950   0.543E-04    0.140E-04
RMM:  13    -0.101863724026E+02   -0.12887E-07   -0.27375E-06 54357   0.470E-04    0.414E-05
RMM:  14    -0.101863743534E+02   -0.19508E-05   -0.28009E-06 49093   0.463E-04    0.115E-05
RMM:  15    -0.101863740549E+02    0.29846E-06   -0.28251E-06 42052   0.451E-04    0.278E-05
RMM:  16    -0.101863739708E+02    0.84154E-07   -0.28543E-06 41589   0.451E-04    0.582E-06
 Linear response to external field, progress :
  Direction:   2
       N       E                     dE             d eps       ncg     rms          rms(c)
RMM:   1    -0.900756377786E+01   -0.90076E+01   -0.57481E+01 36733   0.603E+00
RMM:   2    -0.102205045103E+02   -0.12129E+01   -0.66941E-01 29167   0.138E+00    0.570E+00
RMM:   3    -0.989542828079E+01    0.32508E+00   -0.45401E-01 28670   0.186E+00    0.315E+00
RMM:   4    -0.101000582025E+02   -0.20463E+00   -0.39889E-01 28554   0.174E+00    0.850E-01
RMM:   5    -0.101729476393E+02   -0.72889E-01   -0.12681E-02 28747   0.365E-01    0.854E-02
RMM:   6    -0.101815161772E+02   -0.85685E-02   -0.23616E-03 32272   0.793E-02    0.557E-02
RMM:   7    -0.101830580149E+02   -0.15418E-02    0.57871E-06 32988   0.256E-02    0.260E-02
RMM:   8    -0.101852619870E+02   -0.22040E-02   -0.36580E-04 29682   0.136E-02    0.798E-03
RMM:   9    -0.101862159045E+02   -0.95392E-03    0.72238E-05 30636   0.625E-03    0.198E-03
RMM:  10    -0.101863050565E+02   -0.89152E-04   -0.46356E-06 33028   0.175E-03    0.627E-04
RMM:  11    -0.101863521632E+02   -0.47107E-04    0.73083E-06 32598   0.870E-04    0.226E-04
RMM:  12    -0.101863668578E+02   -0.14695E-04   -0.14979E-06 32646   0.574E-04    0.834E-05
RMM:  13    -0.101863669146E+02   -0.56864E-07   -0.25758E-06 31524   0.475E-04    0.593E-05
RMM:  14    -0.101863665630E+02    0.35161E-06   -0.25723E-06 27681   0.455E-04    0.125E-05
RMM:  15    -0.101863666145E+02   -0.51501E-07   -0.15066E-06 23477   0.447E-04    0.222E-05
RMM:  16    -0.101863664304E+02    0.18407E-06   -0.17986E-06 23355   0.447E-04    0.678E-06
 Linear response to external field, progress :
  Direction:   3
       N       E                     dE             d eps       ncg     rms          rms(c)
RMM:   1    -0.555897638618E+01   -0.55590E+01   -0.27986E+01 14736   0.557E+00
RMM:   2    -0.599014514974E+01   -0.43117E+00   -0.34015E-01 11466   0.114E+00    0.528E+00
RMM:   3    -0.148667033139E+01    0.45035E+01   -0.44113E+00 11352   0.472E+00    0.188E+00
RMM:   4    -0.202312827914E+01   -0.53646E+00   -0.33192E+00 11683   0.133E+00    0.103E+00
RMM:   5    -0.208207719231E+01   -0.58949E-01   -0.63300E+00 10967   0.954E-01    0.366E-01
RMM:   6    -0.183464585456E+01    0.24743E+00   -0.44019E+00 12203   0.368E-01    0.278E-01
RMM:   7    -0.181948072304E+01    0.15165E-01   -0.48586E+00 12119   0.294E-01    0.238E-01
RMM:   8    -0.170864481719E+01    0.11084E+00   -0.39196E+00 11595   0.223E-01    0.103E-01
RMM:   9    -0.153884313651E+01    0.16980E+00   -0.22738E+00 11754   0.129E-01    0.432E-02
RMM:  10    -0.145092202927E+01    0.87921E-01   -0.13991E+00 12464   0.511E-02    0.268E-02
RMM:  11    -0.138059215460E+01    0.70330E-01   -0.69292E-01 11412   0.276E-02    0.150E-02
RMM:  12    -0.134465075564E+01    0.35941E-01   -0.33065E-01 10156   0.251E-02    0.963E-03
RMM:  13    -0.132490240139E+01    0.19748E-01   -0.12689E-01 10152   0.213E-02    0.455E-03
RMM:  14    -0.131977313517E+01    0.51293E-02   -0.72949E-02 10725   0.972E-03    0.226E-03
RMM:  15    -0.131660934977E+01    0.31638E-02   -0.40669E-02 10710   0.622E-03    0.136E-03
RMM:  16    -0.131543622581E+01    0.11731E-02   -0.28991E-02 10641   0.405E-03    0.908E-04
RMM:  17    -0.131405222153E+01    0.13840E-02   -0.15295E-02 11203   0.161E-03    0.703E-04
RMM:  18    -0.131321395249E+01    0.83827E-03   -0.68731E-03 10023   0.222E-03    0.396E-04
RMM:  19    -0.131274245265E+01    0.47150E-03   -0.22457E-03 11252   0.687E-04    0.142E-04
RMM:  20    -0.131257702012E+01    0.16543E-03   -0.61668E-04 11937   0.362E-04    0.163E-04
RMM:  21    -0.131238623926E+01    0.19078E-03    0.12697E-03 10950   0.342E-04    0.608E-05
RMM:  22    -0.131231952056E+01    0.66719E-04    0.19055E-03 10680   0.295E-04    0.547E-05
RMM:  23    -0.131230895025E+01    0.10570E-04    0.20153E-03 11234   0.169E-04    0.297E-05
RMM:  24    -0.131234373805E+01   -0.34788E-04    0.16723E-03  9933   0.125E-04    0.135E-05
RMM:  25    -0.131227728557E+01    0.66452E-04    0.23411E-03  9669   0.114E-04    0.405E-06
