unknown system                          
           1
     3.185946    0.000000    0.000000
    -1.592973    2.759110    0.000000
     0.000000    0.000000   50.000000
   W    S 
   5  10
Direct configuration=     1
   0.16666667  0.33333333  0.25400000
   0.83333333  0.66666667  0.37700000
   0.16666667  0.33333333  0.50000000
   0.83333333  0.66666667  0.62300000
   0.16666667  0.33333333  0.74600000
   0.83333333  0.66666667  0.28545595
   0.83333333  0.66666667  0.22254405
   0.16666667  0.33333333  0.40845595
   0.16666667  0.33333333  0.34554405
   0.83333333  0.66666667  0.53145595
   0.83333333  0.66666667  0.46854405
   0.16666667  0.33333333  0.65445595
   0.16666667  0.33333333  0.59154405
   0.83333333  0.66666667  0.77745595
   0.83333333  0.66666667  0.71454405
