   6   6   0   0
  0.7953528E+02  0.3319749E-09  0.3319749E-09  0.5000000E-08  0.5000000E-15
  1.000000000000000E-004
  CAR 
 unknown system                          
     12.85275593    -66.92858952  301     -2.17273080      1.00000000
    -66.929  0.0000E+00  0.0000E+00
    -66.663  0.0000E+00  0.0000E+00
    -66.397  0.0000E+00  0.0000E+00
    -66.131  0.0000E+00  0.0000E+00
    -65.865  0.0000E+00  0.0000E+00
    -65.599  0.0000E+00  0.0000E+00
    -65.333  0.0000E+00  0.0000E+00
    -65.067  0.0000E+00  0.0000E+00
    -64.801  0.0000E+00  0.0000E+00
    -64.535  0.0000E+00  0.0000E+00
    -64.269  0.0000E+00  0.0000E+00
    -64.003  0.0000E+00  0.0000E+00
    -63.737  0.0000E+00  0.0000E+00
    -63.471  0.0000E+00  0.0000E+00
    -63.205  0.0000E+00  0.4000E+01
    -62.940  0.0000E+00  0.4000E+01
    -62.674  0.0000E+00  0.4000E+01
    -62.408  0.0000E+00  0.4000E+01
    -62.142  0.0000E+00  0.4000E+01
    -61.876  0.0000E+00  0.4000E+01
    -61.610  0.0000E+00  0.4000E+01
    -61.344  0.0000E+00  0.4000E+01
    -61.078  0.0000E+00  0.4000E+01
    -60.812  0.0000E+00  0.4000E+01
    -60.546  0.0000E+00  0.4000E+01
    -60.280  0.0000E+00  0.4000E+01
    -60.014  0.0000E+00  0.4000E+01
    -59.748  0.0000E+00  0.4000E+01
    -59.482  0.0000E+00  0.4000E+01
    -59.216  0.0000E+00  0.4000E+01
    -58.950  0.0000E+00  0.4000E+01
    -58.685  0.0000E+00  0.4000E+01
    -58.419  0.0000E+00  0.4000E+01
    -58.153  0.0000E+00  0.4000E+01
    -57.887  0.0000E+00  0.4000E+01
    -57.621  0.0000E+00  0.4000E+01
    -57.355  0.0000E+00  0.4000E+01
    -57.089  0.0000E+00  0.4000E+01
    -56.823  0.0000E+00  0.4000E+01
    -56.557  0.0000E+00  0.4000E+01
    -56.291  0.0000E+00  0.4000E+01
    -56.025  0.0000E+00  0.4000E+01
    -55.759  0.0000E+00  0.4000E+01
    -55.493  0.0000E+00  0.4000E+01
    -55.227  0.0000E+00  0.4000E+01
    -54.961  0.0000E+00  0.4000E+01
    -54.695  0.0000E+00  0.4000E+01
    -54.430  0.0000E+00  0.4000E+01
    -54.164  0.0000E+00  0.4000E+01
    -53.898  0.0000E+00  0.4000E+01
    -53.632  0.0000E+00  0.4000E+01
    -53.366  0.0000E+00  0.4000E+01
    -53.100  0.0000E+00  0.4000E+01
    -52.834  0.0000E+00  0.4000E+01
    -52.568  0.0000E+00  0.4000E+01
    -52.302  0.0000E+00  0.4000E+01
    -52.036  0.0000E+00  0.4000E+01
    -51.770  0.0000E+00  0.4000E+01
    -51.504  0.0000E+00  0.4000E+01
    -51.238  0.0000E+00  0.4000E+01
    -50.972  0.0000E+00  0.4000E+01
    -50.706  0.0000E+00  0.4000E+01
    -50.440  0.0000E+00  0.4000E+01
    -50.175  0.0000E+00  0.4000E+01
    -49.909  0.0000E+00  0.4000E+01
    -49.643  0.0000E+00  0.4000E+01
    -49.377  0.0000E+00  0.4000E+01
    -49.111  0.0000E+00  0.4000E+01
    -48.845  0.0000E+00  0.4000E+01
    -48.579  0.0000E+00  0.4000E+01
    -48.313  0.0000E+00  0.4000E+01
    -48.047  0.0000E+00  0.4000E+01
    -47.781  0.0000E+00  0.4000E+01
    -47.515  0.0000E+00  0.4000E+01
    -47.249  0.0000E+00  0.4000E+01
    -46.983  0.0000E+00  0.4000E+01
    -46.717  0.0000E+00  0.4000E+01
    -46.451  0.0000E+00  0.4000E+01
    -46.185  0.0000E+00  0.4000E+01
    -45.920  0.0000E+00  0.4000E+01
    -45.654  0.0000E+00  0.4000E+01
    -45.388  0.0000E+00  0.4000E+01
    -45.122  0.0000E+00  0.4000E+01
    -44.856  0.0000E+00  0.4000E+01
    -44.590  0.0000E+00  0.4000E+01
    -44.324  0.0000E+00  0.4000E+01
    -44.058  0.0000E+00  0.4000E+01
    -43.792  0.0000E+00  0.4000E+01
    -43.526  0.0000E+00  0.4000E+01
    -43.260  0.0000E+00  0.4000E+01
    -42.994  0.0000E+00  0.4000E+01
    -42.728  0.0000E+00  0.4000E+01
    -42.462  0.0000E+00  0.4000E+01
    -42.196  0.0000E+00  0.4000E+01
    -41.930  0.0000E+00  0.4000E+01
    -41.664  0.0000E+00  0.4000E+01
    -41.399  0.0000E+00  0.4000E+01
    -41.133  0.0000E+00  0.4000E+01
    -40.867  0.0000E+00  0.4000E+01
    -40.601  0.0000E+00  0.4000E+01
    -40.335  0.0000E+00  0.4000E+01
    -40.069  0.0000E+00  0.4000E+01
    -39.803  0.0000E+00  0.4000E+01
    -39.537  0.0000E+00  0.4000E+01
    -39.271  0.0000E+00  0.4000E+01
    -39.005  0.0000E+00  0.4000E+01
    -38.739  0.0000E+00  0.4000E+01
    -38.473  0.0000E+00  0.4000E+01
    -38.207  0.0000E+00  0.4000E+01
    -37.941  0.0000E+00  0.4000E+01
    -37.675  0.0000E+00  0.4000E+01
    -37.409  0.1623E+02  0.8121E+01
    -37.144  0.0000E+00  0.1600E+02
    -36.878  0.0000E+00  0.1600E+02
    -36.612  0.0000E+00  0.1600E+02
    -36.346  0.0000E+00  0.1600E+02
    -36.080  0.0000E+00  0.1600E+02
    -35.814  0.0000E+00  0.1600E+02
    -35.548  0.0000E+00  0.1600E+02
    -35.282  0.0000E+00  0.1600E+02
    -35.016  0.0000E+00  0.1600E+02
    -34.750  0.0000E+00  0.1600E+02
    -34.484  0.0000E+00  0.1600E+02
    -34.218  0.0000E+00  0.1600E+02
    -33.952  0.0000E+00  0.1600E+02
    -33.686  0.0000E+00  0.1600E+02
    -33.420  0.0000E+00  0.1600E+02
    -33.154  0.0000E+00  0.1600E+02
    -32.889  0.0000E+00  0.1600E+02
    -32.623  0.0000E+00  0.1600E+02
    -32.357  0.0000E+00  0.1600E+02
    -32.091  0.0000E+00  0.1600E+02
    -31.825  0.0000E+00  0.1600E+02
    -31.559  0.0000E+00  0.1600E+02
    -31.293  0.0000E+00  0.1600E+02
    -31.027  0.0000E+00  0.1600E+02
    -30.761  0.0000E+00  0.1600E+02
    -30.495  0.0000E+00  0.1600E+02
    -30.229  0.0000E+00  0.1600E+02
    -29.963  0.0000E+00  0.1600E+02
    -29.697  0.0000E+00  0.1600E+02
    -29.431  0.0000E+00  0.1600E+02
    -29.165  0.0000E+00  0.1600E+02
    -28.899  0.0000E+00  0.1600E+02
    -28.634  0.0000E+00  0.1600E+02
    -28.368  0.0000E+00  0.1600E+02
    -28.102  0.0000E+00  0.1600E+02
    -27.836  0.0000E+00  0.1600E+02
    -27.570  0.0000E+00  0.1600E+02
    -27.304  0.0000E+00  0.1600E+02
    -27.038  0.0000E+00  0.1600E+02
    -26.772  0.0000E+00  0.1600E+02
    -26.506  0.0000E+00  0.1600E+02
    -26.240  0.0000E+00  0.1600E+02
    -25.974  0.0000E+00  0.1600E+02
    -25.708  0.0000E+00  0.1600E+02
    -25.442  0.0000E+00  0.1600E+02
    -25.176  0.0000E+00  0.1600E+02
    -24.910  0.0000E+00  0.1600E+02
    -24.644  0.0000E+00  0.1600E+02
    -24.379  0.0000E+00  0.1600E+02
    -24.113  0.0000E+00  0.1600E+02
    -23.847  0.0000E+00  0.1600E+02
    -23.581  0.0000E+00  0.1600E+02
    -23.315  0.0000E+00  0.1600E+02
    -23.049  0.0000E+00  0.1600E+02
    -22.783  0.0000E+00  0.1600E+02
    -22.517  0.0000E+00  0.1600E+02
    -22.251  0.0000E+00  0.1600E+02
    -21.985  0.0000E+00  0.1600E+02
    -21.719  0.0000E+00  0.1600E+02
    -21.453  0.0000E+00  0.1600E+02
    -21.187  0.0000E+00  0.1600E+02
    -20.921  0.0000E+00  0.1600E+02
    -20.655  0.0000E+00  0.1600E+02
    -20.389  0.0000E+00  0.1600E+02
    -20.124  0.0000E+00  0.1600E+02
    -19.858  0.0000E+00  0.1600E+02
    -19.592  0.0000E+00  0.1600E+02
    -19.326  0.0000E+00  0.1600E+02
    -19.060  0.0000E+00  0.1600E+02
    -18.794  0.0000E+00  0.1600E+02
    -18.528  0.0000E+00  0.1600E+02
    -18.262  0.0000E+00  0.1600E+02
    -17.996  0.0000E+00  0.1600E+02
    -17.730  0.0000E+00  0.1600E+02
    -17.464  0.0000E+00  0.1600E+02
    -17.198  0.0000E+00  0.1600E+02
    -16.932  0.0000E+00  0.1600E+02
    -16.666  0.4630E+00  0.1602E+02
    -16.400  0.1125E+01  0.1625E+02
    -16.134  0.1257E+01  0.1657E+02
    -15.869  0.1400E+01  0.1692E+02
    -15.603  0.2597E+01  0.1744E+02
    -15.337  0.4288E+01  0.1839E+02
    -15.071  0.5972E+01  0.1971E+02
    -14.805  0.8947E+01  0.2185E+02
    -14.539  0.0000E+00  0.2400E+02
    -14.273  0.0000E+00  0.2400E+02
    -14.007  0.0000E+00  0.2400E+02
    -13.741  0.0000E+00  0.2400E+02
    -13.475  0.0000E+00  0.2400E+02
    -13.209  0.0000E+00  0.2400E+02
    -12.943  0.0000E+00  0.2400E+02
    -12.677  0.0000E+00  0.2400E+02
    -12.411  0.0000E+00  0.2400E+02
    -12.145  0.0000E+00  0.2400E+02
    -11.879  0.0000E+00  0.2400E+02
    -11.614  0.0000E+00  0.2400E+02
    -11.348  0.0000E+00  0.2400E+02
    -11.082  0.0000E+00  0.2400E+02
    -10.816  0.0000E+00  0.2400E+02
    -10.550  0.0000E+00  0.2400E+02
    -10.284  0.0000E+00  0.2400E+02
    -10.018  0.0000E+00  0.2400E+02
     -9.752  0.0000E+00  0.2400E+02
     -9.486  0.0000E+00  0.2400E+02
     -9.220  0.0000E+00  0.2400E+02
     -8.954  0.0000E+00  0.2400E+02
     -8.688  0.0000E+00  0.2400E+02
     -8.422  0.0000E+00  0.2400E+02
     -8.156  0.0000E+00  0.2400E+02
     -7.890  0.2390E+01  0.2443E+02
     -7.624  0.3197E+01  0.2517E+02
     -7.359  0.1014E+02  0.2658E+02
     -7.093  0.5494E+01  0.2858E+02
     -6.827  0.1949E+01  0.2979E+02
     -6.561  0.1664E+01  0.3026E+02
     -6.295  0.6463E+01  0.3132E+02
     -6.029  0.2014E+02  0.3310E+02
     -5.763  0.2986E+01  0.3452E+02
     -5.497  0.4459E+01  0.3563E+02
     -5.231  0.9466E+01  0.3749E+02
     -4.965  0.3919E+01  0.3896E+02
     -4.699  0.3117E+01  0.3984E+02
     -4.433  0.5879E+01  0.4095E+02
     -4.167  0.8304E+01  0.4291E+02
     -3.901  0.4230E+01  0.4506E+02
     -3.635  0.4440E+01  0.4642E+02
     -3.369  0.2846E+01  0.4756E+02
     -3.104  0.6818E+01  0.4929E+02
     -2.838  0.4116E+01  0.5094E+02
     -2.572  0.1954E+01  0.5173E+02
     -2.306  0.4005E+00  0.5196E+02
     -2.040  0.0000E+00  0.5200E+02
     -1.774  0.0000E+00  0.5200E+02
     -1.508  0.0000E+00  0.5200E+02
     -1.242  0.0000E+00  0.5200E+02
     -0.976  0.2338E+01  0.5213E+02
     -0.710  0.4797E+01  0.5333E+02
     -0.444  0.4106E+01  0.5543E+02
     -0.178  0.8425E+01  0.5805E+02
      0.088  0.5431E+01  0.6012E+02
      0.354  0.5513E+01  0.6172E+02
      0.620  0.4304E+01  0.6314E+02
      0.886  0.2288E+01  0.6403E+02
      1.151  0.3140E+01  0.6469E+02
      1.417  0.2195E+01  0.6634E+02
      1.683  0.2994E+01  0.6733E+02
      1.949  0.0000E+00  0.6800E+02
      2.215  0.0000E+00  0.6800E+02
      2.481  0.5694E+00  0.6806E+02
      2.747  0.7741E+00  0.6824E+02
      3.013  0.2265E+01  0.6855E+02
      3.279  0.3208E+01  0.6926E+02
      3.545  0.4039E+01  0.7023E+02
      3.811  0.4819E+01  0.7146E+02
      4.077  0.5688E+01  0.7286E+02
      4.343  0.4591E+01  0.7427E+02
      4.609  0.5023E+01  0.7565E+02
      4.875  0.6679E+01  0.7713E+02
      5.141  0.7715E+01  0.7910E+02
      5.406  0.7930E+01  0.8120E+02
      5.672  0.7778E+01  0.8331E+02
      5.938  0.7676E+01  0.8525E+02
      6.204  0.8130E+01  0.8734E+02
      6.470  0.9656E+01  0.8985E+02
      6.736  0.8229E+01  0.9264E+02
      7.002  0.9611E+01  0.9520E+02
      7.268  0.9408E+01  0.9793E+02
      7.534  0.8020E+01  0.1005E+03
      7.800  0.1100E+02  0.1030E+03
      8.066  0.8492E+01  0.1054E+03
      8.332  0.7678E+01  0.1078E+03
      8.598  0.6998E+01  0.1098E+03
      8.864  0.4222E+01  0.1113E+03
      9.130  0.7896E+00  0.1119E+03
      9.396  0.0000E+00  0.1120E+03
      9.662  0.0000E+00  0.1120E+03
      9.927  0.0000E+00  0.1120E+03
     10.193  0.0000E+00  0.1120E+03
     10.459  0.0000E+00  0.1120E+03
     10.725  0.0000E+00  0.1120E+03
     10.991  0.0000E+00  0.1120E+03
     11.257  0.0000E+00  0.1120E+03
     11.523  0.0000E+00  0.1120E+03
     11.789  0.0000E+00  0.1120E+03
     12.055  0.0000E+00  0.1120E+03
     12.321  0.0000E+00  0.1120E+03
     12.587  0.0000E+00  0.1120E+03
     12.853  0.0000E+00  0.1120E+03
