       N       E                     dE             d eps       ncg     rms          rms(c)
DAV:   1     0.243483977800E+03    0.24348E+03   -0.20670E+04  5348   0.522E+02
DAV:   2    -0.229939839417E+02   -0.26648E+03   -0.23930E+03  6188   0.178E+02
DAV:   3    -0.466323980489E+02   -0.23638E+02   -0.23266E+02  5404   0.580E+01
DAV:   4    -0.474757801113E+02   -0.84338E+00   -0.84227E+00  6300   0.117E+01
DAV:   5    -0.474878323793E+02   -0.12052E-01   -0.12050E-01  5740   0.997E-01    0.137E+01
DAV:   6    -0.437182338478E+02    0.37696E+01   -0.28686E+01  6664   0.242E+01    0.868E+00
DAV:   7    -0.417091646065E+02    0.20091E+01   -0.99350E+00  6748   0.135E+01    0.392E+00
DAV:   8    -0.415701677899E+02    0.13900E+00   -0.12804E+00  6636   0.527E+00    0.150E+00
DAV:   9    -0.415019059650E+02    0.68262E-01   -0.20795E-01  7224   0.223E+00    0.227E-01
DAV:  10    -0.415011765169E+02    0.72945E-03   -0.13746E-02  5488   0.445E-01    0.873E-02
DAV:  11    -0.415009239368E+02    0.25258E-03   -0.10687E-03  6216   0.126E-01    0.403E-02
DAV:  12    -0.415008059415E+02    0.11800E-03   -0.22294E-04  5656   0.564E-02    0.254E-02
DAV:  13    -0.415007328763E+02    0.73065E-04   -0.58655E-05  6076   0.233E-02    0.124E-02
DAV:  14    -0.415007645177E+02   -0.31641E-04   -0.33475E-05  5516   0.195E-02    0.687E-03
DAV:  15    -0.415008436964E+02   -0.79179E-04   -0.10643E-05  5068   0.743E-03    0.397E-03
DAV:  16    -0.415009140961E+02   -0.70400E-04   -0.24518E-06  4732   0.460E-03    0.197E-03
DAV:  17    -0.415009695132E+02   -0.55417E-04   -0.18090E-06  4816   0.380E-03    0.130E-03
DAV:  18    -0.415009959069E+02   -0.26394E-04   -0.41044E-07  4984   0.270E-03    0.819E-04
DAV:  19    -0.415010086220E+02   -0.12715E-04   -0.20083E-07  5152   0.129E-03    0.358E-04
DAV:  20    -0.415010141349E+02   -0.55128E-05   -0.12089E-07  4984   0.671E-04    0.187E-04
DAV:  21    -0.415010181677E+02   -0.40329E-05   -0.42283E-08  5124   0.474E-04    0.109E-04
DAV:  22    -0.415010194784E+02   -0.13107E-05   -0.86359E-09  4872   0.221E-04    0.547E-05
DAV:  23    -0.415010204098E+02   -0.93140E-06   -0.86478E-09  4424   0.213E-04    0.278E-05
DAV:  24    -0.415010207823E+02   -0.37253E-06   -0.15024E-09  4256   0.129E-04    0.173E-05
DAV:  25    -0.415010208775E+02   -0.95123E-07   -0.91771E-11  4256   0.566E-05    0.107E-05
DAV:  26    -0.415010209659E+02   -0.88479E-07   -0.76619E-11  3584   0.515E-05    0.687E-06
DAV:  27    -0.415010210331E+02   -0.67152E-07   -0.44974E-11  3444   0.502E-05    0.617E-06
DAV:  28    -0.415010210491E+02   -0.16022E-07   -0.41495E-12  3808   0.333E-05    0.434E-06
DAV:  29    -0.415010210543E+02   -0.51850E-08   -0.16261E-11  3752   0.206E-05
   1 F= -.43104903E+02 E0= -.43104903E+02  d E =0.000000E+00
 Linear response reoptimize wavefunctions
DAV:   1    -0.415010210553E+02    0.16039E+01    0.19647E-11  3612   0.154E-05
DAV:   2    -0.415010210552E+02    0.21828E-10    0.17603E-11  4788   0.666E-06
 Linear response G [H, r] |phi>, progress :
  Direction:   1
       N       E                     dE             d eps       ncg     rms
RMM:   1    -0.208424032050E+03   -0.20842E+03   -0.79036E+00  6825   0.312E+02
RMM:   2    -0.221993479401E+03   -0.13569E+02   -0.15027E+02  8337   0.386E+01
RMM:   3    -0.224845984880E+03   -0.28525E+01   -0.80481E+00  8413   0.985E+00
RMM:   4    -0.224989311735E+03   -0.14333E+00   -0.29381E-01  8858   0.206E+00
RMM:   5    -0.224993845410E+03   -0.45337E-02   -0.20396E-02  8925   0.566E-01
RMM:   6    -0.224994340932E+03   -0.49552E-03   -0.22253E-03  8750   0.170E-01
RMM:   7    -0.224994394700E+03   -0.53769E-04   -0.24372E-04  9198   0.524E-02
RMM:   8    -0.224994398752E+03   -0.40520E-05   -0.27509E-05  9285   0.171E-02
RMM:   9    -0.224994399280E+03   -0.52820E-06   -0.33864E-06  9172   0.573E-03
RMM:  10    -0.224994399405E+03   -0.12435E-06   -0.11433E-06  9667   0.195E-03
RMM:  11    -0.224994399356E+03    0.48402E-07   -0.20905E-07 10178   0.814E-04
RMM:  12    -0.224994399305E+03    0.51135E-07    0.35718E-07 10271   0.539E-04
RMM:  13    -0.224994399307E+03   -0.22634E-08    0.34256E-07 10381   0.480E-04
RMM:  14    -0.224994399359E+03   -0.51085E-07   -0.16762E-07 10316   0.470E-04
RMM:  15    -0.224994399350E+03    0.88500E-08   -0.78945E-08 10314   0.467E-04
 Linear response G [H, r] |phi>, progress :
  Direction:   2
       N       E                     dE             d eps       ncg     rms
RMM:   1    -0.201122595315E+03   -0.20112E+03    0.36765E+00  6860   0.315E+02
RMM:   2    -0.236116091329E+03   -0.34993E+02   -0.14042E+02  8295   0.399E+01
RMM:   3    -0.238644647354E+03   -0.25286E+01   -0.68411E+00  8372   0.978E+00
RMM:   4    -0.238777906229E+03   -0.13326E+00   -0.24556E-01  8765   0.201E+00
RMM:   5    -0.238782856569E+03   -0.49503E-02   -0.18039E-02  8905   0.557E-01
RMM:   6    -0.238783383088E+03   -0.52652E-03   -0.20076E-03  8775   0.166E-01
RMM:   7    -0.238783434139E+03   -0.51051E-04   -0.17557E-04  9163   0.511E-02
RMM:   8    -0.238783439614E+03   -0.54748E-05   -0.97141E-06  9266   0.166E-02
RMM:   9    -0.238783440957E+03   -0.13432E-05    0.38710E-06  9152   0.524E-03
RMM:  10    -0.238783441495E+03   -0.53775E-06    0.12575E-06  9638   0.169E-03
RMM:  11    -0.238783441337E+03    0.15833E-06    0.31738E-06 10078   0.727E-04
RMM:  12    -0.238783441322E+03    0.14474E-07    0.33572E-06 10251   0.474E-04
RMM:  13    -0.238783441373E+03   -0.51109E-07    0.28518E-06 10281   0.424E-04
RMM:  14    -0.238783441370E+03    0.34411E-08    0.28867E-06 10233   0.415E-04
RMM:  15    -0.238783441623E+03   -0.25286E-06    0.35813E-07 10230   0.414E-04
 Linear response G [H, r] |phi>, progress :
  Direction:   3
       N       E                     dE             d eps       ncg     rms
RMM:   1    -0.201420991182E+03   -0.20142E+03    0.19941E+02  7754   0.312E+02
RMM:   2    -0.229410204734E+03   -0.27989E+02   -0.12002E+02  8253   0.373E+01
RMM:   3    -0.231579916189E+03   -0.21697E+01   -0.61377E+00  8345   0.978E+00
RMM:   4    -0.231700637824E+03   -0.12072E+00   -0.26966E-01  8730   0.209E+00
RMM:   5    -0.231706314909E+03   -0.56771E-02   -0.19787E-02  8719   0.548E-01
RMM:   6    -0.231706708346E+03   -0.39344E-03   -0.19880E-03  8602   0.154E-01
RMM:   7    -0.231706753172E+03   -0.44825E-04   -0.17821E-04  8764   0.442E-02
RMM:   8    -0.231706756834E+03   -0.36616E-05   -0.21522E-05  8771   0.137E-02
RMM:   9    -0.231706757238E+03   -0.40416E-06   -0.24646E-06  8707   0.436E-03
RMM:  10    -0.231706757282E+03   -0.44064E-07   -0.34641E-07  9268   0.152E-03
RMM:  11    -0.231706757285E+03   -0.35887E-08   -0.20087E-08  9632   0.584E-04
 Linear response to external field (no local field effect), progress :
  Direction:   1
       N       E                     dE             d eps       ncg     rms          rms(c)
RMM:   1    -0.432959736000E+01   -0.43296E+01   -0.28643E+01 10576   0.570E+00
RMM:   2    -0.557732779182E+01   -0.12477E+01    0.44633E-01  6885   0.158E+00
RMM:   3    -0.565088510025E+01   -0.73557E-01   -0.34978E-02  8333   0.351E-01
RMM:   4    -0.565207829106E+01   -0.11932E-02   -0.11516E-03  8359   0.750E-02
RMM:   5    -0.565215095177E+01   -0.72661E-04   -0.22165E-04  8625   0.225E-02
RMM:   6    -0.565215458631E+01   -0.36345E-05   -0.10924E-05  8708   0.635E-03
RMM:   7    -0.565215502742E+01   -0.44112E-06   -0.10808E-06  8230   0.205E-03
RMM:   8    -0.565215508583E+01   -0.58409E-07   -0.10352E-07  8031   0.666E-04
RMM:   9    -0.565215509186E+01   -0.60308E-08   -0.16680E-08  7972   0.220E-04
 Linear response to external field (no local field effect), progress :
  Direction:   2
       N       E                     dE             d eps       ncg     rms          rms(c)
RMM:   1    -0.451063944647E+01   -0.45106E+01   -0.29198E+01 10572   0.579E+00
RMM:   2    -0.562260505683E+01   -0.11120E+01    0.51738E-01  6902   0.158E+00
RMM:   3    -0.570014593523E+01   -0.77541E-01   -0.35022E-02  8335   0.360E-01
RMM:   4    -0.570123078799E+01   -0.10849E-02   -0.10280E-03  8355   0.740E-02
RMM:   5    -0.570129617851E+01   -0.65391E-04   -0.14740E-04  8626   0.217E-02
RMM:   6    -0.570130041436E+01   -0.42359E-05   -0.80322E-06  8681   0.612E-03
RMM:   7    -0.570130084369E+01   -0.42933E-06   -0.10463E-06  8270   0.196E-03
RMM:   8    -0.570130088623E+01   -0.42538E-07   -0.86270E-08  8027   0.633E-04
RMM:   9    -0.570130089072E+01   -0.44921E-08   -0.12783E-08  7766   0.207E-04
 Linear response to external field (no local field effect), progress :
  Direction:   3
       N       E                     dE             d eps       ncg     rms          rms(c)
RMM:   1    -0.277811425496E+01   -0.27781E+01   -0.14623E+01 10502   0.525E+00
RMM:   2    -0.316075921629E+01   -0.38264E+00    0.11756E-01  6670   0.137E+00
RMM:   3    -0.318805201508E+01   -0.27293E-01   -0.18918E-02  8326   0.311E-01
RMM:   4    -0.318856345578E+01   -0.51144E-03   -0.41989E-04  8438   0.625E-02
RMM:   5    -0.318859433745E+01   -0.30882E-04   -0.82878E-05  8641   0.179E-02
RMM:   6    -0.318859645017E+01   -0.21127E-05   -0.38313E-06  8540   0.478E-03
RMM:   7    -0.318859659953E+01   -0.14936E-06   -0.33875E-07  8268   0.143E-03
RMM:   8    -0.318859661056E+01   -0.11030E-07   -0.22795E-08  7902   0.448E-04
RMM:   9    -0.318859661156E+01   -0.10055E-08   -0.33665E-09  7652   0.149E-04
 Linear response to external field, progress :
  Direction:   1
       N       E                     dE             d eps       ncg     rms          rms(c)
RMM:   1    -0.443368957364E+01   -0.44337E+01   -0.29056E+01 25761   0.571E+00
RMM:   2    -0.559836146989E+01   -0.11647E+01    0.49766E-01 17045   0.156E+00    0.496E+00
RMM:   3    -0.546946834220E+01    0.12889E+00   -0.10701E-01 18311   0.168E+00    0.262E+00
RMM:   4    -0.558951610674E+01   -0.12005E+00   -0.12592E-02 19043   0.159E+00    0.425E-01
RMM:   5    -0.564514225545E+01   -0.55626E-01   -0.65261E-03 19096   0.413E-01    0.637E-02
RMM:   6    -0.564824618824E+01   -0.31039E-02    0.36556E-03 20651   0.754E-02    0.316E-02
RMM:   7    -0.564754272193E+01    0.70347E-03    0.26075E-02 19977   0.328E-02    0.154E-02
RMM:   8    -0.565161978138E+01   -0.40771E-02   -0.10727E-02 20452   0.124E-02    0.582E-03
RMM:   9    -0.565100265694E+01    0.61712E-03   -0.32452E-04 19131   0.701E-03    0.201E-03
RMM:  10    -0.565111198566E+01   -0.10933E-03   -0.20309E-04 20594   0.212E-03    0.626E-04
RMM:  11    -0.565111695267E+01   -0.49670E-05    0.89046E-05 20834   0.811E-04    0.275E-04
RMM:  12    -0.565113871178E+01   -0.21759E-04   -0.39315E-06 20958   0.323E-04    0.529E-05
RMM:  13    -0.565114183883E+01   -0.31270E-05   -0.34838E-05 21307   0.967E-05    0.260E-05
RMM:  14    -0.565114079218E+01    0.10466E-05   -0.25371E-05 17377   0.326E-05    0.901E-06
 Linear response to external field, progress :
  Direction:   2
       N       E                     dE             d eps       ncg     rms          rms(c)
RMM:   1    -0.444243232550E+01   -0.44424E+01   -0.29143E+01 25999   0.571E+00
RMM:   2    -0.560246102731E+01   -0.11600E+01    0.45904E-01 16889   0.156E+00    0.496E+00
RMM:   3    -0.546942964250E+01    0.13303E+00   -0.10248E-01 18521   0.168E+00    0.262E+00
RMM:   4    -0.559229156095E+01   -0.12286E+00   -0.40336E-02 19212   0.159E+00    0.425E-01
RMM:   5    -0.564277611190E+01   -0.50485E-01    0.14791E-02 19358   0.411E-01    0.696E-02
RMM:   6    -0.565503827760E+01   -0.12262E-01   -0.66162E-02 20411   0.801E-02    0.400E-02
RMM:   7    -0.564625146817E+01    0.87868E-02    0.33317E-02 19925   0.362E-02    0.207E-02
RMM:   8    -0.565095319933E+01   -0.47017E-02   -0.41919E-03 19366   0.164E-02    0.583E-03
RMM:   9    -0.565105086394E+01   -0.97665E-04   -0.99472E-04 20453   0.671E-03    0.202E-03
RMM:  10    -0.565108684337E+01   -0.35979E-04   -0.17055E-05 20659   0.198E-03    0.705E-04
RMM:  11    -0.565114665000E+01   -0.59807E-04   -0.33091E-04 21056   0.794E-04    0.438E-04
RMM:  12    -0.565111788305E+01    0.28767E-04    0.16357E-04 20441   0.373E-04    0.171E-04
RMM:  13    -0.565114125629E+01   -0.23373E-04   -0.28611E-05 20377   0.183E-04    0.364E-05
RMM:  14    -0.565113842178E+01    0.28345E-05    0.59012E-07 20653   0.613E-05    0.197E-05
RMM:  15    -0.565113793113E+01    0.49065E-06    0.10094E-06 16367   0.254E-05    0.525E-06
 Linear response to external field, progress :
  Direction:   3
       N       E                     dE             d eps       ncg     rms          rms(c)
RMM:   1    -0.277811425496E+01   -0.27781E+01   -0.14623E+01 10502   0.525E+00
RMM:   2    -0.316075921629E+01   -0.38264E+00    0.11756E-01  6670   0.137E+00    0.420E+00
RMM:   3     0.935809277574E+00    0.40966E+01    0.15810E+01  7763   0.275E+00    0.279E+00
RMM:   4    -0.512940974424E+00   -0.14488E+01   -0.49641E-01  7364   0.107E+00    0.815E-01
RMM:   5    -0.159955170758E+00    0.35299E+00    0.26376E+00  7477   0.499E-01    0.524E-01
RMM:   6    -0.261672154762E+00   -0.10172E+00    0.13480E+00  6937   0.366E-01    0.208E-01
RMM:   7    -0.395912119896E+00   -0.13424E+00   -0.46197E-02  7111   0.121E-01    0.111E-01
RMM:   8    -0.363856717469E+00    0.32055E-01    0.24965E-01  6820   0.691E-02    0.393E-02
RMM:   9    -0.376061239310E+00   -0.12205E-01    0.12193E-01  6694   0.342E-02    0.202E-02
RMM:  10    -0.387185294584E+00   -0.11124E-01    0.95328E-03  6813   0.199E-02    0.129E-02
RMM:  11    -0.389482847708E+00   -0.22976E-02   -0.10007E-02  6446   0.198E-02    0.557E-03
RMM:  12    -0.388843973808E+00    0.63887E-03   -0.70087E-04  6820   0.112E-02    0.291E-03
RMM:  13    -0.389216587034E+00   -0.37261E-03   -0.34711E-03  7080   0.489E-03    0.168E-03
RMM:  14    -0.388754959982E+00    0.46163E-03    0.14839E-03  6958   0.386E-03    0.111E-03
RMM:  15    -0.388739681037E+00    0.15279E-04    0.16728E-03  7351   0.165E-03    0.829E-04
RMM:  16    -0.388861410391E+00   -0.12173E-03    0.42619E-04  6940   0.232E-03    0.362E-04
RMM:  17    -0.388914436327E+00   -0.53026E-04   -0.15565E-04  7344   0.105E-03    0.227E-04
RMM:  18    -0.388893614031E+00    0.20822E-04   -0.20072E-05  7269   0.132E-03    0.129E-04
RMM:  19    -0.388902976235E+00   -0.93622E-05   -0.13296E-04  7491   0.640E-04    0.773E-05
RMM:  20    -0.388899801497E+00    0.31747E-05   -0.11324E-04  7111   0.477E-04    0.412E-05
RMM:  21    -0.388898971681E+00    0.82982E-06   -0.10461E-04  7159   0.152E-04    0.251E-05
RMM:  22    -0.388899800906E+00   -0.82922E-06   -0.10667E-04  6609   0.195E-04    0.132E-05
RMM:  23    -0.388896134308E+00    0.36666E-05   -0.69043E-05  6734   0.679E-05    0.566E-06
