unknown system                          
           1
     3.319749    0.000000    0.000000
    -1.659874    2.874987    0.000000
     0.000000    0.000000   50.000000
   Mo   Se
   2   4
Direct configuration=     1
   0.16666667  0.33333333  0.43540000
   0.83333333  0.66666667  0.56460000
   0.83333333  0.66666667  0.46878059
   0.83333333  0.66666667  0.40201941
   0.16666667  0.33333333  0.59798059
   0.16666667  0.33333333  0.53121941
