  12  12   0   0
  0.3658336E+02  0.3184067E-09  0.3184067E-09  0.5000000E-08  0.5000000E-15
  1.000000000000000E-004
  CAR 
 unknown system                          
     15.16767259    -64.21727470  301      0.94453620      1.00000000
    -64.217  0.0000E+00  0.0000E+00
    -63.953  0.0000E+00  0.0000E+00
    -63.688  0.0000E+00  0.0000E+00
    -63.423  0.0000E+00  0.0000E+00
    -63.159  0.0000E+00  0.0000E+00
    -62.894  0.0000E+00  0.0000E+00
    -62.630  0.0000E+00  0.0000E+00
    -62.365  0.0000E+00  0.0000E+00
    -62.100  0.0000E+00  0.0000E+00
    -61.836  0.0000E+00  0.0000E+00
    -61.571  0.0000E+00  0.0000E+00
    -61.306  0.0000E+00  0.0000E+00
    -61.042  0.0000E+00  0.0000E+00
    -60.777  0.0000E+00  0.0000E+00
    -60.513  0.0000E+00  0.8000E+01
    -60.248  0.0000E+00  0.8000E+01
    -59.983  0.0000E+00  0.8000E+01
    -59.719  0.0000E+00  0.8000E+01
    -59.454  0.0000E+00  0.8000E+01
    -59.190  0.0000E+00  0.8000E+01
    -58.925  0.0000E+00  0.8000E+01
    -58.660  0.0000E+00  0.8000E+01
    -58.396  0.0000E+00  0.8000E+01
    -58.131  0.0000E+00  0.8000E+01
    -57.866  0.0000E+00  0.8000E+01
    -57.602  0.0000E+00  0.8000E+01
    -57.337  0.0000E+00  0.8000E+01
    -57.073  0.0000E+00  0.8000E+01
    -56.808  0.0000E+00  0.8000E+01
    -56.543  0.0000E+00  0.8000E+01
    -56.279  0.0000E+00  0.8000E+01
    -56.014  0.0000E+00  0.8000E+01
    -55.750  0.0000E+00  0.8000E+01
    -55.485  0.0000E+00  0.8000E+01
    -55.220  0.0000E+00  0.8000E+01
    -54.956  0.0000E+00  0.8000E+01
    -54.691  0.0000E+00  0.8000E+01
    -54.426  0.0000E+00  0.8000E+01
    -54.162  0.0000E+00  0.8000E+01
    -53.897  0.0000E+00  0.8000E+01
    -53.633  0.0000E+00  0.8000E+01
    -53.368  0.0000E+00  0.8000E+01
    -53.103  0.0000E+00  0.8000E+01
    -52.839  0.0000E+00  0.8000E+01
    -52.574  0.0000E+00  0.8000E+01
    -52.310  0.0000E+00  0.8000E+01
    -52.045  0.0000E+00  0.8000E+01
    -51.780  0.0000E+00  0.8000E+01
    -51.516  0.0000E+00  0.8000E+01
    -51.251  0.0000E+00  0.8000E+01
    -50.986  0.0000E+00  0.8000E+01
    -50.722  0.0000E+00  0.8000E+01
    -50.457  0.0000E+00  0.8000E+01
    -50.193  0.0000E+00  0.8000E+01
    -49.928  0.0000E+00  0.8000E+01
    -49.663  0.0000E+00  0.8000E+01
    -49.399  0.0000E+00  0.8000E+01
    -49.134  0.0000E+00  0.8000E+01
    -48.870  0.0000E+00  0.8000E+01
    -48.605  0.0000E+00  0.8000E+01
    -48.340  0.0000E+00  0.8000E+01
    -48.076  0.0000E+00  0.8000E+01
    -47.811  0.0000E+00  0.8000E+01
    -47.546  0.0000E+00  0.8000E+01
    -47.282  0.0000E+00  0.8000E+01
    -47.017  0.0000E+00  0.8000E+01
    -46.753  0.0000E+00  0.8000E+01
    -46.488  0.0000E+00  0.8000E+01
    -46.223  0.0000E+00  0.8000E+01
    -45.959  0.0000E+00  0.8000E+01
    -45.694  0.0000E+00  0.8000E+01
    -45.430  0.0000E+00  0.8000E+01
    -45.165  0.0000E+00  0.8000E+01
    -44.900  0.0000E+00  0.8000E+01
    -44.636  0.0000E+00  0.8000E+01
    -44.371  0.0000E+00  0.8000E+01
    -44.106  0.0000E+00  0.8000E+01
    -43.842  0.0000E+00  0.8000E+01
    -43.577  0.0000E+00  0.8000E+01
    -43.313  0.0000E+00  0.8000E+01
    -43.048  0.0000E+00  0.8000E+01
    -42.783  0.0000E+00  0.8000E+01
    -42.519  0.0000E+00  0.8000E+01
    -42.254  0.0000E+00  0.8000E+01
    -41.989  0.0000E+00  0.8000E+01
    -41.725  0.0000E+00  0.8000E+01
    -41.460  0.0000E+00  0.8000E+01
    -41.196  0.0000E+00  0.8000E+01
    -40.931  0.0000E+00  0.8000E+01
    -40.666  0.0000E+00  0.8000E+01
    -40.402  0.0000E+00  0.8000E+01
    -40.137  0.0000E+00  0.8000E+01
    -39.873  0.0000E+00  0.8000E+01
    -39.608  0.0000E+00  0.8000E+01
    -39.343  0.0000E+00  0.8000E+01
    -39.079  0.0000E+00  0.8000E+01
    -38.814  0.0000E+00  0.8000E+01
    -38.549  0.0000E+00  0.8000E+01
    -38.285  0.0000E+00  0.8000E+01
    -38.020  0.0000E+00  0.8000E+01
    -37.756  0.0000E+00  0.8000E+01
    -37.491  0.0000E+00  0.8000E+01
    -37.226  0.0000E+00  0.8000E+01
    -36.962  0.0000E+00  0.8000E+01
    -36.697  0.0000E+00  0.8000E+01
    -36.433  0.0000E+00  0.8000E+01
    -36.168  0.0000E+00  0.8000E+01
    -35.903  0.0000E+00  0.8000E+01
    -35.639  0.0000E+00  0.8000E+01
    -35.374  0.0000E+00  0.8000E+01
    -35.109  0.0000E+00  0.8000E+01
    -34.845  0.6506E+02  0.1055E+02
    -34.580  0.5409E+02  0.2992E+02
    -34.316  0.0000E+00  0.3200E+02
    -34.051  0.0000E+00  0.3200E+02
    -33.786  0.0000E+00  0.3200E+02
    -33.522  0.0000E+00  0.3200E+02
    -33.257  0.0000E+00  0.3200E+02
    -32.993  0.0000E+00  0.3200E+02
    -32.728  0.0000E+00  0.3200E+02
    -32.463  0.0000E+00  0.3200E+02
    -32.199  0.0000E+00  0.3200E+02
    -31.934  0.0000E+00  0.3200E+02
    -31.669  0.0000E+00  0.3200E+02
    -31.405  0.0000E+00  0.3200E+02
    -31.140  0.0000E+00  0.3200E+02
    -30.876  0.0000E+00  0.3200E+02
    -30.611  0.0000E+00  0.3200E+02
    -30.346  0.0000E+00  0.3200E+02
    -30.082  0.0000E+00  0.3200E+02
    -29.817  0.0000E+00  0.3200E+02
    -29.553  0.0000E+00  0.3200E+02
    -29.288  0.0000E+00  0.3200E+02
    -29.023  0.0000E+00  0.3200E+02
    -28.759  0.0000E+00  0.3200E+02
    -28.494  0.0000E+00  0.3200E+02
    -28.229  0.0000E+00  0.3200E+02
    -27.965  0.0000E+00  0.3200E+02
    -27.700  0.0000E+00  0.3200E+02
    -27.436  0.0000E+00  0.3200E+02
    -27.171  0.0000E+00  0.3200E+02
    -26.906  0.0000E+00  0.3200E+02
    -26.642  0.0000E+00  0.3200E+02
    -26.377  0.0000E+00  0.3200E+02
    -26.113  0.0000E+00  0.3200E+02
    -25.848  0.0000E+00  0.3200E+02
    -25.583  0.0000E+00  0.3200E+02
    -25.319  0.0000E+00  0.3200E+02
    -25.054  0.0000E+00  0.3200E+02
    -24.789  0.0000E+00  0.3200E+02
    -24.525  0.0000E+00  0.3200E+02
    -24.260  0.0000E+00  0.3200E+02
    -23.996  0.0000E+00  0.3200E+02
    -23.731  0.0000E+00  0.3200E+02
    -23.466  0.0000E+00  0.3200E+02
    -23.202  0.0000E+00  0.3200E+02
    -22.937  0.0000E+00  0.3200E+02
    -22.672  0.0000E+00  0.3200E+02
    -22.408  0.0000E+00  0.3200E+02
    -22.143  0.0000E+00  0.3200E+02
    -21.879  0.0000E+00  0.3200E+02
    -21.614  0.0000E+00  0.3200E+02
    -21.349  0.0000E+00  0.3200E+02
    -21.085  0.0000E+00  0.3200E+02
    -20.820  0.0000E+00  0.3200E+02
    -20.556  0.0000E+00  0.3200E+02
    -20.291  0.0000E+00  0.3200E+02
    -20.026  0.0000E+00  0.3200E+02
    -19.762  0.0000E+00  0.3200E+02
    -19.497  0.0000E+00  0.3200E+02
    -19.232  0.0000E+00  0.3200E+02
    -18.968  0.0000E+00  0.3200E+02
    -18.703  0.0000E+00  0.3200E+02
    -18.439  0.0000E+00  0.3200E+02
    -18.174  0.0000E+00  0.3200E+02
    -17.909  0.0000E+00  0.3200E+02
    -17.645  0.0000E+00  0.3200E+02
    -17.380  0.0000E+00  0.3200E+02
    -17.116  0.0000E+00  0.3200E+02
    -16.851  0.0000E+00  0.3200E+02
    -16.586  0.0000E+00  0.3200E+02
    -16.322  0.0000E+00  0.3200E+02
    -16.057  0.0000E+00  0.3200E+02
    -15.792  0.0000E+00  0.3200E+02
    -15.528  0.0000E+00  0.3200E+02
    -15.263  0.0000E+00  0.3200E+02
    -14.999  0.0000E+00  0.3200E+02
    -14.734  0.0000E+00  0.3200E+02
    -14.469  0.0000E+00  0.3200E+02
    -14.205  0.0000E+00  0.3200E+02
    -13.940  0.0000E+00  0.3200E+02
    -13.676  0.2261E+01  0.3228E+02
    -13.411  0.2236E+01  0.3284E+02
    -13.146  0.2413E+01  0.3345E+02
    -12.882  0.2709E+01  0.3413E+02
    -12.617  0.4210E+01  0.3499E+02
    -12.352  0.7954E+01  0.3662E+02
    -12.088  0.1334E+02  0.3949E+02
    -11.823  0.2065E+02  0.4415E+02
    -11.559  0.0000E+00  0.4800E+02
    -11.294  0.0000E+00  0.4800E+02
    -11.029  0.0000E+00  0.4800E+02
    -10.765  0.0000E+00  0.4800E+02
    -10.500  0.0000E+00  0.4800E+02
    -10.236  0.0000E+00  0.4800E+02
     -9.971  0.0000E+00  0.4800E+02
     -9.706  0.0000E+00  0.4800E+02
     -9.442  0.0000E+00  0.4800E+02
     -9.177  0.0000E+00  0.4800E+02
     -8.912  0.0000E+00  0.4800E+02
     -8.648  0.0000E+00  0.4800E+02
     -8.383  0.0000E+00  0.4800E+02
     -8.119  0.0000E+00  0.4800E+02
     -7.854  0.0000E+00  0.4800E+02
     -7.589  0.0000E+00  0.4800E+02
     -7.325  0.0000E+00  0.4800E+02
     -7.060  0.0000E+00  0.4800E+02
     -6.795  0.0000E+00  0.4800E+02
     -6.531  0.0000E+00  0.4800E+02
     -6.266  0.0000E+00  0.4800E+02
     -6.002  0.0000E+00  0.4800E+02
     -5.737  0.6256E+00  0.4801E+02
     -5.472  0.3028E+01  0.4838E+02
     -5.208  0.7146E+01  0.4977E+02
     -4.943  0.1444E+02  0.5301E+02
     -4.679  0.1465E+02  0.5615E+02
     -4.414  0.7635E+01  0.5905E+02
     -4.149  0.3343E+01  0.6016E+02
     -3.885  0.5915E+01  0.6142E+02
     -3.620  0.1835E+02  0.6411E+02
     -3.355  0.1549E+02  0.6787E+02
     -3.091  0.7625E+01  0.7032E+02
     -2.826  0.2041E+02  0.7360E+02
     -2.562  0.1064E+02  0.7732E+02
     -2.297  0.8136E+01  0.7933E+02
     -2.032  0.9051E+01  0.8127E+02
     -1.768  0.1550E+02  0.8324E+02
     -1.503  0.1523E+02  0.8757E+02
     -1.239  0.9786E+01  0.9069E+02
     -0.974  0.9824E+01  0.9339E+02
     -0.709  0.5399E+01  0.9526E+02
     -0.445  0.1467E+02  0.9815E+02
     -0.180  0.8744E+01  0.1013E+03
      0.085  0.3924E+01  0.1030E+03
      0.349  0.1297E+01  0.1037E+03
      0.614  0.6043E+00  0.1039E+03
      0.878  0.2001E+00  0.1040E+03
      1.143  0.0000E+00  0.1040E+03
      1.408  0.0000E+00  0.1040E+03
      1.672  0.0000E+00  0.1040E+03
      1.937  0.2134E+01  0.1040E+03
      2.201  0.8810E+01  0.1053E+03
      2.466  0.1856E+02  0.1083E+03
      2.731  0.1835E+02  0.1130E+03
      2.995  0.2057E+02  0.1181E+03
      3.260  0.1042E+02  0.1222E+03
      3.525  0.8753E+01  0.1246E+03
      3.789  0.8623E+01  0.1271E+03
      4.054  0.5377E+01  0.1289E+03
      4.318  0.9725E+01  0.1306E+03
      4.583  0.8964E+01  0.1331E+03
      4.848  0.4722E+01  0.1348E+03
      5.112  0.1956E+01  0.1358E+03
      5.377  0.0000E+00  0.1360E+03
      5.641  0.0000E+00  0.1360E+03
      5.906  0.6256E+00  0.1361E+03
      6.171  0.7611E+00  0.1363E+03
      6.435  0.1841E+01  0.1366E+03
      6.700  0.4611E+01  0.1374E+03
      6.965  0.5418E+01  0.1387E+03
      7.229  0.5852E+01  0.1401E+03
      7.494  0.6706E+01  0.1418E+03
      7.758  0.6594E+01  0.1436E+03
      8.023  0.5831E+01  0.1453E+03
      8.288  0.8521E+01  0.1472E+03
      8.552  0.1227E+02  0.1502E+03
      8.817  0.1015E+02  0.1531E+03
      9.081  0.9633E+01  0.1557E+03
      9.346  0.1236E+02  0.1584E+03
      9.611  0.1260E+02  0.1619E+03
      9.875  0.1119E+02  0.1651E+03
     10.140  0.5330E+01  0.1667E+03
     10.405  0.1255E+01  0.1673E+03
     10.669  0.8385E+00  0.1676E+03
     10.934  0.6743E+00  0.1678E+03
     11.198  0.4122E+00  0.1679E+03
     11.463  0.8471E-01  0.1680E+03
     11.728  0.0000E+00  0.1680E+03
     11.992  0.0000E+00  0.1680E+03
     12.257  0.0000E+00  0.1680E+03
     12.522  0.0000E+00  0.1680E+03
     12.786  0.0000E+00  0.1680E+03
     13.051  0.0000E+00  0.1680E+03
     13.315  0.0000E+00  0.1680E+03
     13.580  0.0000E+00  0.1680E+03
     13.845  0.0000E+00  0.1680E+03
     14.109  0.0000E+00  0.1680E+03
     14.374  0.0000E+00  0.1680E+03
     14.638  0.0000E+00  0.1680E+03
     14.903  0.0000E+00  0.1680E+03
     15.168  0.0000E+00  0.1680E+03
