       N       E                     dE             d eps       ncg     rms          rms(c)
DAV:   1     0.659144857212E+03    0.65914E+03   -0.44481E+04  7252   0.791E+02
DAV:   2    -0.450304536831E+02   -0.70418E+03   -0.67966E+03  9464   0.314E+02
DAV:   3    -0.101461764212E+03   -0.56431E+02   -0.55611E+02  8400   0.833E+01
DAV:   4    -0.104725250448E+03   -0.32635E+01   -0.32590E+01 11844   0.226E+01
DAV:   5    -0.104736796893E+03   -0.11546E-01   -0.11543E-01  9212   0.105E+00    0.211E+01
DAV:   6    -0.935645745706E+02    0.11172E+02   -0.66301E+01 10164   0.349E+01    0.110E+01
DAV:   7    -0.905529120830E+02    0.30117E+01   -0.18340E+01  9492   0.178E+01    0.598E+00
DAV:   8    -0.903675541859E+02    0.18536E+00   -0.22169E+00 10024   0.654E+00    0.182E+00
DAV:   9    -0.902695028749E+02    0.98051E-01   -0.33002E-01 10136   0.292E+00    0.478E-01
DAV:  10    -0.902693837033E+02    0.11917E-03   -0.30946E-02  9436   0.628E-01    0.234E-01
DAV:  11    -0.902686357366E+02    0.74797E-03   -0.49340E-03  9492   0.285E-01    0.858E-02
DAV:  12    -0.902684612375E+02    0.17450E-03   -0.10582E-03  8652   0.133E-01    0.421E-02
DAV:  13    -0.902684326353E+02    0.28602E-04   -0.17445E-04  9240   0.515E-02    0.187E-02
DAV:  14    -0.902684444919E+02   -0.11857E-04   -0.32100E-05  8820   0.220E-02    0.113E-02
DAV:  15    -0.902684686346E+02   -0.24143E-04   -0.12121E-05  8932   0.159E-02    0.504E-03
DAV:  16    -0.902685068798E+02   -0.38245E-04   -0.86990E-06  8568   0.875E-03    0.380E-03
DAV:  17    -0.902685659669E+02   -0.59087E-04   -0.72255E-06  7532   0.699E-03    0.193E-03
DAV:  18    -0.902685915111E+02   -0.25544E-04   -0.12835E-06  8540   0.305E-03    0.134E-03
DAV:  19    -0.902686143247E+02   -0.22814E-04   -0.68663E-07  7896   0.217E-03    0.633E-04
DAV:  20    -0.902686212181E+02   -0.68935E-05   -0.80634E-08  9156   0.774E-04    0.460E-04
DAV:  21    -0.902686317499E+02   -0.10532E-04   -0.13260E-07  7140   0.709E-04    0.213E-04
DAV:  22    -0.902686342247E+02   -0.24748E-05   -0.39008E-08  7280   0.377E-04    0.143E-04
DAV:  23    -0.902686363892E+02   -0.21644E-05   -0.28052E-08  6664   0.337E-04    0.784E-05
DAV:  24    -0.902686370899E+02   -0.70073E-06   -0.56415E-09  6160   0.195E-04    0.468E-05
DAV:  25    -0.902686379415E+02   -0.85165E-06   -0.59950E-09  5852   0.195E-04    0.319E-05
DAV:  26    -0.902686381773E+02   -0.23576E-06   -0.71345E-10  6412   0.109E-04    0.224E-05
DAV:  27    -0.902686382850E+02   -0.10769E-06   -0.22054E-10  5628   0.842E-05    0.157E-05
DAV:  28    -0.902686384240E+02   -0.13900E-06   -0.28167E-10  5096   0.937E-05    0.128E-05
DAV:  29    -0.902686384397E+02   -0.15702E-07   -0.43730E-11  5824   0.524E-05    0.527E-06
DAV:  30    -0.902686384559E+02   -0.16182E-07   -0.30532E-11  5180   0.388E-05    0.405E-06
DAV:  31    -0.902686384572E+02   -0.13206E-08   -0.78855E-12  6216   0.241E-05
   1 F= -.93761576E+02 E0= -.93761576E+02  d E =0.000000E+00
 Linear response reoptimize wavefunctions
DAV:   1    -0.902686384574E+02    0.34929E+01    0.38465E-12  5908   0.162E-05
DAV:   2    -0.902686384575E+02   -0.72760E-10   -0.14012E-11  6216   0.855E-06
 Linear response G [H, r] |phi>, progress :
  Direction:   1
       N       E                     dE             d eps       ncg     rms
RMM:   1    -0.399066777119E+03   -0.39907E+03   -0.14632E+02  9036   0.421E+02
RMM:   2    -0.416469629536E+03   -0.17403E+02   -0.31895E+02 10637   0.536E+01
RMM:   3    -0.425049821960E+03   -0.85802E+01   -0.30075E+01 11089   0.155E+01
RMM:   4    -0.425603910550E+03   -0.55409E+00   -0.14132E+00 11945   0.405E+00
RMM:   5    -0.425644456576E+03   -0.40546E-01   -0.18458E-01 12742   0.134E+00
RMM:   6    -0.425648304538E+03   -0.38480E-02   -0.29094E-02 12713   0.469E-01
RMM:   7    -0.425648679203E+03   -0.37466E-03   -0.42444E-03 13370   0.175E-01
RMM:   8    -0.425648763266E+03   -0.84062E-04   -0.82092E-04 13729   0.684E-02
RMM:   9    -0.425648740508E+03    0.22757E-04    0.14798E-04 14098   0.277E-02
RMM:  10    -0.425648772496E+03   -0.31987E-04   -0.49398E-05 15047   0.116E-02
RMM:  11    -0.425648773419E+03   -0.92363E-06   -0.37601E-05 15204   0.590E-03
RMM:  12    -0.425648770385E+03    0.30340E-05   -0.40841E-06 15502   0.417E-03
RMM:  13    -0.425648770710E+03   -0.32521E-06   -0.68267E-06 15413   0.374E-03
RMM:  14    -0.425648769716E+03    0.99445E-06    0.32035E-06 15267   0.365E-03
RMM:  15    -0.425648769773E+03   -0.57012E-07    0.26548E-06 15194   0.363E-03
 Linear response G [H, r] |phi>, progress :
  Direction:   2
       N       E                     dE             d eps       ncg     rms
RMM:   1    -0.380594125090E+03   -0.38059E+03   -0.61010E+01  9128   0.425E+02
RMM:   2    -0.436852026116E+03   -0.56258E+02   -0.32004E+02 10584   0.552E+01
RMM:   3    -0.444817971275E+03   -0.79659E+01   -0.29365E+01 11072   0.155E+01
RMM:   4    -0.445443025407E+03   -0.62505E+00   -0.13963E+00 12001   0.399E+00
RMM:   5    -0.445485017223E+03   -0.41992E-01   -0.16860E-01 12664   0.130E+00
RMM:   6    -0.445488935979E+03   -0.39188E-02   -0.25453E-02 13057   0.452E-01
RMM:   7    -0.445489411331E+03   -0.47535E-03   -0.30172E-03 13297   0.167E-01
RMM:   8    -0.445489485868E+03   -0.74537E-04   -0.73704E-05 13450   0.635E-02
RMM:   9    -0.445489486075E+03   -0.20705E-06    0.56416E-04 14117   0.251E-02
RMM:  10    -0.445489506330E+03   -0.20255E-04    0.46466E-04 14763   0.106E-02
RMM:  11    -0.445489503154E+03    0.31759E-05    0.51339E-04 15273   0.553E-03
RMM:  12    -0.445489501103E+03    0.20512E-05    0.53665E-04 15459   0.400E-03
RMM:  13    -0.445489501434E+03   -0.33121E-06    0.53375E-04 15478   0.361E-03
RMM:  14    -0.445489499978E+03    0.14564E-05    0.54839E-04 15307   0.353E-03
RMM:  15    -0.445489500338E+03   -0.36050E-06    0.54481E-04 15231   0.352E-03
 Linear response G [H, r] |phi>, progress :
  Direction:   3
       N       E                     dE             d eps       ncg     rms
RMM:   1    -0.386501083305E+03   -0.38650E+03    0.23802E+02  9947   0.422E+02
RMM:   2    -0.428282957799E+03   -0.41782E+02   -0.27259E+02 10658   0.522E+01
RMM:   3    -0.434447561658E+03   -0.61646E+01   -0.22973E+01 11032   0.154E+01
RMM:   4    -0.434925039479E+03   -0.47748E+00   -0.14219E+00 12183   0.403E+00
RMM:   5    -0.434962104419E+03   -0.37065E-01   -0.19722E-01 13000   0.130E+00
RMM:   6    -0.434965117778E+03   -0.30134E-02   -0.26778E-02 12695   0.431E-01
RMM:   7    -0.434965547741E+03   -0.42996E-03   -0.43015E-03 13029   0.158E-01
RMM:   8    -0.434965591665E+03   -0.43923E-04   -0.64621E-04 13166   0.594E-02
RMM:   9    -0.434965600581E+03   -0.89162E-05   -0.13098E-04 13908   0.235E-02
RMM:  10    -0.434965602011E+03   -0.14299E-05   -0.38719E-05 14602   0.102E-02
RMM:  11    -0.434965602984E+03   -0.97332E-06   -0.31393E-05 14962   0.574E-03
RMM:  12    -0.434965602579E+03    0.40544E-06   -0.24600E-05 15119   0.450E-03
RMM:  13    -0.434965602903E+03   -0.32416E-06   -0.27389E-05 15018   0.422E-03
RMM:  14    -0.434965602675E+03    0.22756E-06   -0.25015E-05 14889   0.416E-03
 Linear response to external field (no local field effect), progress :
  Direction:   1
       N       E                     dE             d eps       ncg     rms          rms(c)
RMM:   1    -0.728182790142E+01   -0.72818E+01   -0.48332E+01 14950   0.737E+00
RMM:   2    -0.908577538509E+01   -0.18039E+01    0.20942E-01  9119   0.195E+00
RMM:   3    -0.916548849161E+01   -0.79713E-01   -0.80287E-02 11637   0.505E-01
RMM:   4    -0.916814817055E+01   -0.26597E-02   -0.45780E-03 11553   0.143E-01
RMM:   5    -0.916828570023E+01   -0.13753E-03   -0.53383E-04 12323   0.513E-02
RMM:   6    -0.916830654354E+01   -0.20843E-04   -0.72768E-05 12642   0.189E-02
RMM:   7    -0.916830915424E+01   -0.26107E-05   -0.10623E-05 12394   0.715E-03
RMM:   8    -0.916830953324E+01   -0.37899E-06   -0.16326E-06 12463   0.279E-03
RMM:   9    -0.916830957675E+01   -0.43515E-07   -0.31660E-07 11940   0.113E-03
RMM:  10    -0.916830958305E+01   -0.62982E-08   -0.10200E-07 11611   0.494E-04
RMM:  11    -0.916830958464E+01   -0.15911E-08   -0.74282E-08 11288   0.261E-04
 Linear response to external field (no local field effect), progress :
  Direction:   2
       N       E                     dE             d eps       ncg     rms          rms(c)
RMM:   1    -0.743594088820E+01   -0.74359E+01   -0.48482E+01 14884   0.745E+00
RMM:   2    -0.894358815102E+01   -0.15076E+01    0.37730E-01  9072   0.196E+00
RMM:   3    -0.903482645235E+01   -0.91238E-01   -0.78554E-02 11569   0.518E-01
RMM:   4    -0.903775739004E+01   -0.29309E-02   -0.55594E-03 11556   0.147E-01
RMM:   5    -0.903789377441E+01   -0.13638E-03   -0.49462E-04 12109   0.525E-02
RMM:   6    -0.903791496852E+01   -0.21194E-04   -0.80758E-05 12559   0.193E-02
RMM:   7    -0.903791759497E+01   -0.26265E-05   -0.95484E-06 12261   0.723E-03
RMM:   8    -0.903791798911E+01   -0.39414E-06   -0.18045E-06 12451   0.282E-03
RMM:   9    -0.903791802581E+01   -0.36702E-07   -0.32270E-07 11954   0.114E-03
RMM:  10    -0.903791803434E+01   -0.85343E-08   -0.13914E-07 11624   0.513E-04
RMM:  11    -0.903791803529E+01   -0.94203E-09   -0.10372E-07 11088   0.279E-04
RMM:  12    -0.903791803553E+01   -0.24341E-09   -0.98704E-08 10238   0.197E-04
 Linear response to external field (no local field effect), progress :
  Direction:   3
       N       E                     dE             d eps       ncg     rms          rms(c)
RMM:   1    -0.447579621301E+01   -0.44758E+01   -0.23583E+01 14943   0.679E+00
RMM:   2    -0.504309392783E+01   -0.56730E+00    0.10311E-01  8613   0.165E+00
RMM:   3    -0.507961828579E+01   -0.36524E-01   -0.38611E-02 11500   0.430E-01
RMM:   4    -0.508093278745E+01   -0.13145E-02   -0.29975E-03 11945   0.122E-01
RMM:   5    -0.508098127325E+01   -0.48486E-04   -0.27220E-04 11986   0.444E-02
RMM:   6    -0.508099160106E+01   -0.10328E-04   -0.52683E-05 12483   0.167E-02
RMM:   7    -0.508099241534E+01   -0.81428E-06   -0.77312E-06 12094   0.658E-03
RMM:   8    -0.508099262129E+01   -0.20595E-06   -0.17353E-06 11984   0.266E-03
RMM:   9    -0.508099262935E+01   -0.80558E-08   -0.30685E-07 11458   0.110E-03
RMM:  10    -0.508099263425E+01   -0.49015E-08   -0.11541E-07 11370   0.502E-04
RMM:  11    -0.508099263449E+01   -0.24489E-09   -0.70425E-08 10922   0.264E-04
 Linear response to external field, progress :
  Direction:   1
       N       E                     dE             d eps       ncg     rms          rms(c)
RMM:   1    -0.738223584791E+01   -0.73822E+01   -0.48640E+01 36649   0.737E+00
RMM:   2    -0.901589231765E+01   -0.16337E+01    0.28105E-01 22634   0.192E+00    0.646E+00
RMM:   3    -0.872215789205E+01    0.29373E+00   -0.29645E-01 26229   0.219E+00    0.339E+00
RMM:   4    -0.892847457522E+01   -0.20632E+00   -0.19084E-01 26636   0.205E+00    0.592E-01
RMM:   5    -0.900638367261E+01   -0.77909E-01   -0.23048E-02 27831   0.574E-01    0.996E-02
RMM:   6    -0.901468729322E+01   -0.83036E-02    0.23231E-03 27645   0.132E-01    0.450E-02
RMM:   7    -0.901601394218E+01   -0.13266E-02    0.35974E-03 28530   0.465E-02    0.130E-02
RMM:   8    -0.901722835150E+01   -0.12144E-02   -0.52704E-03 30010   0.145E-02    0.752E-03
RMM:   9    -0.901685768536E+01    0.37067E-03    0.17761E-03 29087   0.640E-03    0.304E-03
RMM:  10    -0.901725905357E+01   -0.40137E-03   -0.41855E-04 29139   0.268E-03    0.648E-04
RMM:  11    -0.901725964467E+01   -0.59110E-06   -0.12715E-04 30964   0.983E-04    0.371E-04
RMM:  12    -0.901726647426E+01   -0.68296E-05   -0.65097E-05 30704   0.439E-04    0.145E-04
RMM:  13    -0.901725584789E+01    0.10626E-04    0.21725E-05 30064   0.241E-04    0.721E-05
RMM:  14    -0.901725707957E+01   -0.12317E-05    0.11977E-05 30013   0.179E-04    0.206E-05
RMM:  15    -0.901725888018E+01   -0.18006E-05    0.46484E-06 25896   0.145E-04    0.130E-05
RMM:  16    -0.901725918067E+01   -0.30049E-06    0.12159E-06 23040   0.140E-04    0.616E-06
 Linear response to external field, progress :
  Direction:   2
       N       E                     dE             d eps       ncg     rms          rms(c)
RMM:   1    -0.739596914960E+01   -0.73960E+01   -0.48778E+01 36745   0.737E+00
RMM:   2    -0.902031747713E+01   -0.16243E+01    0.23489E-01 22511   0.191E+00    0.646E+00
RMM:   3    -0.872152747879E+01    0.29879E+00   -0.28464E-01 26329   0.220E+00    0.339E+00
RMM:   4    -0.892691092690E+01   -0.20538E+00   -0.17435E-01 26772   0.205E+00    0.592E-01
RMM:   5    -0.900628115275E+01   -0.79370E-01   -0.22656E-02 27905   0.577E-01    0.104E-01
RMM:   6    -0.901762191983E+01   -0.11341E-01   -0.33594E-02 27878   0.133E-01    0.519E-02
RMM:   7    -0.901411583896E+01    0.35061E-02    0.20656E-02 27934   0.524E-02    0.258E-02
RMM:   8    -0.901687506522E+01   -0.27592E-02   -0.25415E-03 28545   0.204E-02    0.769E-03
RMM:   9    -0.901714745085E+01   -0.27239E-03   -0.11356E-03 29285   0.776E-03    0.323E-03
RMM:  10    -0.901720862572E+01   -0.61175E-04   -0.11380E-05 30659   0.276E-03    0.895E-04
RMM:  11    -0.901720319085E+01    0.54349E-05    0.29946E-04 31365   0.979E-04    0.595E-04
RMM:  12    -0.901728005439E+01   -0.76864E-04   -0.26041E-04 28522   0.520E-04    0.164E-04
RMM:  13    -0.901726253633E+01    0.17518E-04   -0.51422E-05 31734   0.263E-04    0.623E-05
RMM:  14    -0.901725827731E+01    0.42590E-05   -0.16425E-07 29095   0.167E-04    0.313E-05
RMM:  15    -0.901726015575E+01   -0.18784E-05   -0.11540E-05 27120   0.149E-04    0.103E-05
RMM:  16    -0.901725934953E+01    0.80622E-06   -0.16050E-06 23204   0.137E-04    0.717E-06
 Linear response to external field, progress :
  Direction:   3
       N       E                     dE             d eps       ncg     rms          rms(c)
RMM:   1    -0.447579621301E+01   -0.44758E+01   -0.23583E+01 14943   0.679E+00
RMM:   2    -0.504309392783E+01   -0.56730E+00    0.10311E-01  8613   0.165E+00    0.539E+00
RMM:   3    -0.535809602016E+01   -0.31500E+00   -0.42002E+01 10430   0.365E+00    0.285E+00
RMM:   4    -0.181427313030E+01    0.35438E+01   -0.66821E+00 10269   0.126E+00    0.101E+00
RMM:   5    -0.251398334417E+01   -0.69971E+00   -0.15570E+01 10469   0.819E-01    0.456E-01
RMM:   6    -0.114349099806E+01    0.13705E+01   -0.22212E+00 11068   0.351E-01    0.307E-01
RMM:   7    -0.146107514779E+01   -0.31758E+00   -0.57275E+00 10720   0.208E-01    0.182E-01
RMM:   8    -0.122206336808E+01    0.23901E+00   -0.34446E+00 10836   0.144E-01    0.895E-02
RMM:   9    -0.956546949587E+00    0.26552E+00   -0.82757E-01 10981   0.860E-02    0.446E-02
RMM:  10    -0.899567236265E+00    0.56980E-01   -0.27258E-01 10376   0.427E-02    0.202E-02
RMM:  11    -0.870148697605E+00    0.29419E-01    0.22755E-02 10771   0.197E-02    0.138E-02
RMM:  12    -0.869584804568E+00    0.56389E-03    0.30497E-02 10305   0.187E-02    0.841E-03
RMM:  13    -0.872203704175E+00   -0.26189E-02    0.66432E-03 10944   0.121E-02    0.568E-03
RMM:  14    -0.872879546050E+00   -0.67584E-03    0.37992E-03 10571   0.104E-02    0.250E-03
RMM:  15    -0.872834369722E+00    0.45176E-04    0.46052E-03 10843   0.369E-03    0.164E-03
RMM:  16    -0.873404136187E+00   -0.56977E-03   -0.86141E-04 10867   0.327E-03    0.110E-03
RMM:  17    -0.874543289145E+00   -0.11392E-02   -0.12299E-02 10598   0.269E-03    0.598E-04
RMM:  18    -0.873380944994E+00    0.11623E-02   -0.76981E-04 11010   0.193E-03    0.314E-04
RMM:  19    -0.873257329652E+00    0.12362E-03    0.36718E-04 11065   0.145E-03    0.169E-04
RMM:  20    -0.873280361596E+00   -0.23032E-04    0.11551E-04 11300   0.680E-04    0.120E-04
RMM:  21    -0.873306899874E+00   -0.26538E-04   -0.15842E-04 11038   0.636E-04    0.642E-05
RMM:  22    -0.873423448225E+00   -0.11655E-03   -0.13316E-03 10923   0.176E-04    0.279E-05
RMM:  23    -0.873462783997E+00   -0.39336E-04   -0.17257E-03 10174   0.108E-04    0.234E-05
RMM:  24    -0.873481147898E+00   -0.18364E-04   -0.19056E-03  9929   0.912E-05    0.675E-06
