  15  15   0   0
  0.3638185E+02  0.3550076E-09  0.3550076E-09  0.5000000E-08  0.5000000E-15
  1.000000000000000E-004
  CAR 
 unknown system                          
     12.27373854    -73.72289286  301      4.31905013      1.00000000
    -73.723  0.0000E+00  0.0000E+00
    -73.436  0.0000E+00  0.0000E+00
    -73.150  0.0000E+00  0.0000E+00
    -72.863  0.0000E+00  0.0000E+00
    -72.576  0.0000E+00  0.0000E+00
    -72.290  0.0000E+00  0.0000E+00
    -72.003  0.0000E+00  0.0000E+00
    -71.716  0.0000E+00  0.0000E+00
    -71.430  0.0000E+00  0.0000E+00
    -71.143  0.0000E+00  0.0000E+00
    -70.856  0.0000E+00  0.0000E+00
    -70.570  0.0000E+00  0.0000E+00
    -70.283  0.0000E+00  0.0000E+00
    -69.996  0.0000E+00  0.0000E+00
    -69.710  0.0000E+00  0.1000E+02
    -69.423  0.0000E+00  0.1000E+02
    -69.136  0.0000E+00  0.1000E+02
    -68.850  0.0000E+00  0.1000E+02
    -68.563  0.0000E+00  0.1000E+02
    -68.276  0.0000E+00  0.1000E+02
    -67.990  0.0000E+00  0.1000E+02
    -67.703  0.0000E+00  0.1000E+02
    -67.416  0.0000E+00  0.1000E+02
    -67.130  0.0000E+00  0.1000E+02
    -66.843  0.0000E+00  0.1000E+02
    -66.557  0.0000E+00  0.1000E+02
    -66.270  0.0000E+00  0.1000E+02
    -65.983  0.0000E+00  0.1000E+02
    -65.697  0.0000E+00  0.1000E+02
    -65.410  0.0000E+00  0.1000E+02
    -65.123  0.0000E+00  0.1000E+02
    -64.837  0.0000E+00  0.1000E+02
    -64.550  0.0000E+00  0.1000E+02
    -64.263  0.0000E+00  0.1000E+02
    -63.977  0.0000E+00  0.1000E+02
    -63.690  0.0000E+00  0.1000E+02
    -63.403  0.0000E+00  0.1000E+02
    -63.117  0.0000E+00  0.1000E+02
    -62.830  0.0000E+00  0.1000E+02
    -62.543  0.0000E+00  0.1000E+02
    -62.257  0.0000E+00  0.1000E+02
    -61.970  0.0000E+00  0.1000E+02
    -61.683  0.0000E+00  0.1000E+02
    -61.397  0.0000E+00  0.1000E+02
    -61.110  0.0000E+00  0.1000E+02
    -60.823  0.0000E+00  0.1000E+02
    -60.537  0.0000E+00  0.1000E+02
    -60.250  0.0000E+00  0.1000E+02
    -59.963  0.0000E+00  0.1000E+02
    -59.677  0.0000E+00  0.1000E+02
    -59.390  0.0000E+00  0.1000E+02
    -59.103  0.0000E+00  0.1000E+02
    -58.817  0.0000E+00  0.1000E+02
    -58.530  0.0000E+00  0.1000E+02
    -58.243  0.0000E+00  0.1000E+02
    -57.957  0.0000E+00  0.1000E+02
    -57.670  0.0000E+00  0.1000E+02
    -57.384  0.0000E+00  0.1000E+02
    -57.097  0.0000E+00  0.1000E+02
    -56.810  0.0000E+00  0.1000E+02
    -56.524  0.0000E+00  0.1000E+02
    -56.237  0.0000E+00  0.1000E+02
    -55.950  0.0000E+00  0.1000E+02
    -55.664  0.0000E+00  0.1000E+02
    -55.377  0.0000E+00  0.1000E+02
    -55.090  0.0000E+00  0.1000E+02
    -54.804  0.0000E+00  0.1000E+02
    -54.517  0.0000E+00  0.1000E+02
    -54.230  0.0000E+00  0.1000E+02
    -53.944  0.0000E+00  0.1000E+02
    -53.657  0.0000E+00  0.1000E+02
    -53.370  0.0000E+00  0.1000E+02
    -53.084  0.0000E+00  0.1000E+02
    -52.797  0.0000E+00  0.1000E+02
    -52.510  0.0000E+00  0.1000E+02
    -52.224  0.0000E+00  0.1000E+02
    -51.937  0.0000E+00  0.1000E+02
    -51.650  0.0000E+00  0.1000E+02
    -51.364  0.0000E+00  0.1000E+02
    -51.077  0.0000E+00  0.1000E+02
    -50.790  0.0000E+00  0.1000E+02
    -50.504  0.0000E+00  0.1000E+02
    -50.217  0.0000E+00  0.1000E+02
    -49.930  0.0000E+00  0.1000E+02
    -49.644  0.0000E+00  0.1000E+02
    -49.357  0.0000E+00  0.1000E+02
    -49.071  0.0000E+00  0.1000E+02
    -48.784  0.0000E+00  0.1000E+02
    -48.497  0.0000E+00  0.1000E+02
    -48.211  0.0000E+00  0.1000E+02
    -47.924  0.0000E+00  0.1000E+02
    -47.637  0.0000E+00  0.1000E+02
    -47.351  0.0000E+00  0.1000E+02
    -47.064  0.0000E+00  0.1000E+02
    -46.777  0.0000E+00  0.1000E+02
    -46.491  0.0000E+00  0.1000E+02
    -46.204  0.0000E+00  0.1000E+02
    -45.917  0.0000E+00  0.1000E+02
    -45.631  0.0000E+00  0.1000E+02
    -45.344  0.0000E+00  0.1000E+02
    -45.057  0.0000E+00  0.1000E+02
    -44.771  0.0000E+00  0.1000E+02
    -44.484  0.0000E+00  0.1000E+02
    -44.197  0.0000E+00  0.1000E+02
    -43.911  0.0000E+00  0.1000E+02
    -43.624  0.0000E+00  0.1000E+02
    -43.337  0.0000E+00  0.1000E+02
    -43.051  0.0000E+00  0.1000E+02
    -42.764  0.0000E+00  0.1000E+02
    -42.477  0.0000E+00  0.1000E+02
    -42.191  0.0000E+00  0.1000E+02
    -41.904  0.0000E+00  0.1000E+02
    -41.617  0.0000E+00  0.1000E+02
    -41.331  0.0000E+00  0.1000E+02
    -41.044  0.0000E+00  0.1000E+02
    -40.758  0.0000E+00  0.1000E+02
    -40.471  0.0000E+00  0.1000E+02
    -40.184  0.0000E+00  0.1000E+02
    -39.898  0.0000E+00  0.1000E+02
    -39.611  0.0000E+00  0.1000E+02
    -39.324  0.0000E+00  0.1000E+02
    -39.038  0.0000E+00  0.1000E+02
    -38.751  0.0000E+00  0.1000E+02
    -38.464  0.0000E+00  0.1000E+02
    -38.178  0.0000E+00  0.1000E+02
    -37.891  0.0000E+00  0.1000E+02
    -37.604  0.0000E+00  0.1000E+02
    -37.318  0.0000E+00  0.1000E+02
    -37.031  0.0000E+00  0.1000E+02
    -36.744  0.0000E+00  0.1000E+02
    -36.458  0.0000E+00  0.1000E+02
    -36.171  0.0000E+00  0.1000E+02
    -35.884  0.0000E+00  0.1000E+02
    -35.598  0.0000E+00  0.1000E+02
    -35.311  0.0000E+00  0.1000E+02
    -35.024  0.0000E+00  0.1000E+02
    -34.738  0.0000E+00  0.1000E+02
    -34.451  0.0000E+00  0.1000E+02
    -34.164  0.0000E+00  0.1000E+02
    -33.878  0.0000E+00  0.4000E+02
    -33.591  0.0000E+00  0.4000E+02
    -33.304  0.0000E+00  0.4000E+02
    -33.018  0.0000E+00  0.4000E+02
    -32.731  0.0000E+00  0.4000E+02
    -32.445  0.0000E+00  0.4000E+02
    -32.158  0.0000E+00  0.4000E+02
    -31.871  0.0000E+00  0.4000E+02
    -31.585  0.0000E+00  0.4000E+02
    -31.298  0.0000E+00  0.4000E+02
    -31.011  0.0000E+00  0.4000E+02
    -30.725  0.0000E+00  0.4000E+02
    -30.438  0.0000E+00  0.4000E+02
    -30.151  0.0000E+00  0.4000E+02
    -29.865  0.0000E+00  0.4000E+02
    -29.578  0.0000E+00  0.4000E+02
    -29.291  0.0000E+00  0.4000E+02
    -29.005  0.0000E+00  0.4000E+02
    -28.718  0.0000E+00  0.4000E+02
    -28.431  0.0000E+00  0.4000E+02
    -28.145  0.0000E+00  0.4000E+02
    -27.858  0.0000E+00  0.4000E+02
    -27.571  0.0000E+00  0.4000E+02
    -27.285  0.0000E+00  0.4000E+02
    -26.998  0.0000E+00  0.4000E+02
    -26.711  0.0000E+00  0.4000E+02
    -26.425  0.0000E+00  0.4000E+02
    -26.138  0.0000E+00  0.4000E+02
    -25.851  0.0000E+00  0.4000E+02
    -25.565  0.0000E+00  0.4000E+02
    -25.278  0.0000E+00  0.4000E+02
    -24.991  0.0000E+00  0.4000E+02
    -24.705  0.0000E+00  0.4000E+02
    -24.418  0.0000E+00  0.4000E+02
    -24.132  0.0000E+00  0.4000E+02
    -23.845  0.0000E+00  0.4000E+02
    -23.558  0.0000E+00  0.4000E+02
    -23.272  0.0000E+00  0.4000E+02
    -22.985  0.0000E+00  0.4000E+02
    -22.698  0.0000E+00  0.4000E+02
    -22.412  0.0000E+00  0.4000E+02
    -22.125  0.0000E+00  0.4000E+02
    -21.838  0.0000E+00  0.4000E+02
    -21.552  0.0000E+00  0.4000E+02
    -21.265  0.0000E+00  0.4000E+02
    -20.978  0.0000E+00  0.4000E+02
    -20.692  0.0000E+00  0.4000E+02
    -20.405  0.0000E+00  0.4000E+02
    -20.118  0.0000E+00  0.4000E+02
    -19.832  0.0000E+00  0.4000E+02
    -19.545  0.0000E+00  0.4000E+02
    -19.258  0.0000E+00  0.4000E+02
    -18.972  0.0000E+00  0.4000E+02
    -18.685  0.0000E+00  0.4000E+02
    -18.398  0.0000E+00  0.4000E+02
    -18.112  0.0000E+00  0.4000E+02
    -17.825  0.0000E+00  0.4000E+02
    -17.538  0.0000E+00  0.4000E+02
    -17.252  0.0000E+00  0.4000E+02
    -16.965  0.0000E+00  0.4000E+02
    -16.678  0.0000E+00  0.4000E+02
    -16.392  0.0000E+00  0.4000E+02
    -16.105  0.0000E+00  0.4000E+02
    -15.818  0.0000E+00  0.4000E+02
    -15.532  0.0000E+00  0.4000E+02
    -15.245  0.0000E+00  0.4000E+02
    -14.959  0.0000E+00  0.4000E+02
    -14.672  0.0000E+00  0.4000E+02
    -14.385  0.0000E+00  0.4000E+02
    -14.099  0.0000E+00  0.4000E+02
    -13.812  0.0000E+00  0.4000E+02
    -13.525  0.0000E+00  0.4000E+02
    -13.239  0.0000E+00  0.4000E+02
    -12.952  0.0000E+00  0.4000E+02
    -12.665  0.0000E+00  0.4000E+02
    -12.379  0.0000E+00  0.4000E+02
    -12.092  0.0000E+00  0.4000E+02
    -11.805  0.0000E+00  0.4000E+02
    -11.519  0.0000E+00  0.4000E+02
    -11.232  0.0000E+00  0.4000E+02
    -10.945  0.0000E+00  0.4000E+02
    -10.659  0.0000E+00  0.4000E+02
    -10.372  0.0000E+00  0.4000E+02
    -10.085  0.0000E+00  0.4000E+02
     -9.799  0.0000E+00  0.4000E+02
     -9.512  0.0000E+00  0.4000E+02
     -9.225  0.0000E+00  0.4000E+02
     -8.939  0.7692E+00  0.4003E+02
     -8.652  0.2632E+01  0.4058E+02
     -8.365  0.2729E+01  0.4135E+02
     -8.079  0.2914E+01  0.4215E+02
     -7.792  0.4927E+01  0.4312E+02
     -7.505  0.7538E+01  0.4477E+02
     -7.219  0.8778E+01  0.4710E+02
     -6.932  0.1157E+02  0.4995E+02
     -6.646  0.1387E+02  0.5407E+02
     -6.359  0.1373E+02  0.5837E+02
     -6.072  0.0000E+00  0.6000E+02
     -5.786  0.0000E+00  0.6000E+02
     -5.499  0.0000E+00  0.6000E+02
     -5.212  0.0000E+00  0.6000E+02
     -4.926  0.0000E+00  0.6000E+02
     -4.639  0.0000E+00  0.6000E+02
     -4.352  0.0000E+00  0.6000E+02
     -4.066  0.0000E+00  0.6000E+02
     -3.779  0.0000E+00  0.6000E+02
     -3.492  0.0000E+00  0.6000E+02
     -3.206  0.0000E+00  0.6000E+02
     -2.919  0.0000E+00  0.6000E+02
     -2.632  0.0000E+00  0.6000E+02
     -2.346  0.0000E+00  0.6000E+02
     -2.059  0.0000E+00  0.6000E+02
     -1.772  0.2921E+01  0.6026E+02
     -1.486  0.6059E+01  0.6158E+02
     -1.199  0.7605E+01  0.6342E+02
     -0.912  0.7828E+01  0.6618E+02
     -0.626  0.1662E+02  0.6874E+02
     -0.339  0.1004E+02  0.7297E+02
     -0.052  0.7949E+01  0.7564E+02
      0.234  0.9034E+01  0.7757E+02
      0.521  0.1221E+02  0.8139E+02
      0.808  0.1328E+02  0.8558E+02
      1.094  0.1051E+02  0.8828E+02
      1.381  0.1274E+02  0.9191E+02
      1.667  0.1576E+02  0.9584E+02
      1.954  0.9135E+01  0.9910E+02
      2.241  0.3225E+02  0.1019E+03
      2.527  0.2092E+02  0.1085E+03
      2.814  0.1705E+02  0.1138E+03
      3.101  0.1080E+02  0.1181E+03
      3.387  0.1273E+02  0.1206E+03
      3.674  0.1854E+02  0.1259E+03
      3.961  0.7335E+01  0.1292E+03
      4.247  0.0000E+00  0.1300E+03
      4.534  0.0000E+00  0.1300E+03
      4.821  0.0000E+00  0.1300E+03
      5.107  0.0000E+00  0.1300E+03
      5.394  0.6016E+01  0.1308E+03
      5.681  0.1198E+02  0.1337E+03
      5.967  0.9328E+01  0.1385E+03
      6.254  0.2241E+02  0.1459E+03
      6.541  0.1167E+02  0.1498E+03
      6.827  0.1436E+02  0.1544E+03
      7.114  0.8123E+01  0.1577E+03
      7.401  0.1056E+02  0.1599E+03
      7.687  0.1336E+02  0.1633E+03
      7.974  0.6094E+01  0.1666E+03
      8.261  0.1653E+01  0.1679E+03
      8.547  0.0000E+00  0.1680E+03
      8.834  0.0000E+00  0.1680E+03
      9.121  0.0000E+00  0.1680E+03
      9.407  0.0000E+00  0.1680E+03
      9.694  0.0000E+00  0.1680E+03
      9.980  0.0000E+00  0.1680E+03
     10.267  0.0000E+00  0.1680E+03
     10.554  0.0000E+00  0.1680E+03
     10.840  0.0000E+00  0.1680E+03
     11.127  0.0000E+00  0.1680E+03
     11.414  0.0000E+00  0.1680E+03
     11.700  0.0000E+00  0.1680E+03
     11.987  0.0000E+00  0.1680E+03
     12.274  0.0000E+00  0.1680E+03
