       N       E                     dE             d eps       ncg     rms          rms(c)
DAV:   1     0.979478830293E+03    0.97948E+03   -0.52768E+04  7952   0.911E+02
DAV:   2    -0.400253735714E+02   -0.10195E+04   -0.10058E+04  9548   0.292E+02
DAV:   3    -0.114255090664E+03   -0.74230E+02   -0.73770E+02  8932   0.815E+01
DAV:   4    -0.116479777936E+03   -0.22247E+01   -0.22164E+01  9744   0.152E+01
DAV:   5    -0.116524197595E+03   -0.44420E-01   -0.44357E-01  8372   0.200E+00    0.175E+02
DAV:   6    -0.109422647981E+03    0.71015E+01   -0.57006E+01  8092   0.169E+01    0.149E+02
DAV:   7    -0.149921226083E+03   -0.40499E+02   -0.27744E+02  7812   0.364E+01    0.194E+02
DAV:   8    -0.105927048851E+03    0.43994E+02   -0.17248E+02  8064   0.281E+01    0.470E+00
DAV:   9    -0.107467766958E+03   -0.15407E+01   -0.17062E+01  8400   0.889E+00    0.486E+00
DAV:  10    -0.107526956957E+03   -0.59190E-01   -0.64305E-01  9940   0.186E+00    0.501E+00
DAV:  11    -0.107518049279E+03    0.89077E-02   -0.10520E-02  9072   0.257E-01    0.434E+00
DAV:  12    -0.107483400335E+03    0.34649E-01   -0.37025E-02  8932   0.507E-01    0.207E+00
DAV:  13    -0.107461965979E+03    0.21434E-01   -0.78844E-02  9324   0.720E-01    0.226E+00
DAV:  14    -0.107462606136E+03   -0.64016E-03   -0.10817E-02  8400   0.265E-01    0.320E+00
DAV:  15    -0.107460358723E+03    0.22474E-02   -0.42830E-03  9996   0.174E-01    0.176E+00
DAV:  16    -0.107459914528E+03    0.44419E-03   -0.23879E-03 10332   0.106E-01    0.103E+00
DAV:  17    -0.107459872869E+03    0.41659E-04   -0.12607E-04 10024   0.328E-02    0.550E-01
DAV:  18    -0.107459839816E+03    0.33053E-04   -0.57571E-05  8540   0.217E-02    0.379E-01
DAV:  19    -0.107459839329E+03    0.48730E-06   -0.24060E-04  9184   0.413E-02    0.203E-01
DAV:  20    -0.107459849186E+03   -0.98573E-05   -0.50302E-05  8568   0.166E-02    0.230E-02
DAV:  21    -0.107459871829E+03   -0.22643E-04   -0.24408E-05  9772   0.109E-02    0.163E-02
DAV:  22    -0.107459911164E+03   -0.39335E-04   -0.24505E-05  9128   0.983E-03    0.342E-02
DAV:  23    -0.107459935481E+03   -0.24317E-04   -0.23609E-06  8484   0.350E-03    0.305E-02
DAV:  24    -0.107459963515E+03   -0.28034E-04   -0.32282E-06  8036   0.359E-03    0.192E-02
DAV:  25    -0.107459978487E+03   -0.14972E-04   -0.22043E-06  8904   0.342E-03    0.491E-03
DAV:  26    -0.107459982047E+03   -0.35595E-05   -0.79916E-07  9044   0.196E-03    0.225E-03
DAV:  27    -0.107459983632E+03   -0.15852E-05   -0.15994E-07  9912   0.936E-04    0.154E-03
DAV:  28    -0.107459984470E+03   -0.83766E-06   -0.31728E-08  7616   0.424E-04    0.105E-03
DAV:  29    -0.107459985179E+03   -0.70885E-06   -0.11789E-08  6468   0.310E-04    0.914E-04
DAV:  30    -0.107459985746E+03   -0.56700E-06   -0.52239E-09  6104   0.193E-04    0.665E-04
DAV:  31    -0.107459986497E+03   -0.75172E-06   -0.11002E-08  6720   0.229E-04    0.863E-04
DAV:  32    -0.107459986637E+03   -0.13929E-06   -0.16153E-09  5852   0.128E-04    0.575E-04
DAV:  33    -0.107459986700E+03   -0.63286E-07   -0.79108E-10  6216   0.847E-05    0.117E-04
DAV:  34    -0.107459986718E+03   -0.18641E-07   -0.36022E-10  5908   0.647E-05    0.915E-05
DAV:  35    -0.107459986724E+03   -0.51059E-08   -0.15626E-10  6188   0.496E-05
   1 F= -.11220059E+03 E0= -.11220059E+03  d E =0.000000E+00
 Linear response reoptimize wavefunctions
DAV:   1    -0.107459986723E+03    0.47406E+01   -0.33214E-10  5796   0.574E-05
DAV:   2    -0.107459986723E+03    0.87311E-10   -0.71277E-11  5712   0.299E-05
 Linear response G [H, r] |phi>, progress :
  Direction:   1
       N       E                     dE             d eps       ncg     rms
RMM:   1    -0.633732504794E+03   -0.63373E+03   -0.74140E+03  8578   0.582E+02
RMM:   2    -0.660637905868E+03   -0.26905E+02   -0.10840E+03 12999   0.576E+01
RMM:   3    -0.675266054747E+03   -0.14628E+02   -0.13542E+02 14157   0.168E+01
RMM:   4    -0.677241321577E+03   -0.19753E+01   -0.12005E+01 15384   0.470E+00
RMM:   5    -0.677549907062E+03   -0.30859E+00   -0.23002E+00 16116   0.167E+00
RMM:   6    -0.677580798941E+03   -0.30892E-01   -0.19898E-01 16905   0.557E-01
RMM:   7    -0.677591614224E+03   -0.10815E-01   -0.70329E-02 17158   0.244E-01
RMM:   8    -0.677592528977E+03   -0.91475E-03   -0.10053E-02 17365   0.877E-02
RMM:   9    -0.677591966769E+03    0.56221E-03    0.12984E-03 17417   0.455E-02
RMM:  10    -0.677591663133E+03    0.30364E-03    0.66999E-03 17611   0.223E-02
RMM:  11    -0.677591942190E+03   -0.27906E-03    0.41148E-03 17691   0.164E-02
RMM:  12    -0.677591533870E+03    0.40832E-03    0.82831E-03 17717   0.135E-02
RMM:  13    -0.677591599222E+03   -0.65352E-04    0.76400E-03 17703   0.127E-02
RMM:  14    -0.677591835609E+03   -0.23639E-03    0.52809E-03 17576   0.124E-02
 Linear response G [H, r] |phi>, progress :
  Direction:   2
       N       E                     dE             d eps       ncg     rms
RMM:   1    -0.612257847230E+03   -0.61226E+03   -0.76947E+03  8519   0.579E+02
RMM:   2    -0.694097526281E+03   -0.81840E+02   -0.12157E+03 12934   0.579E+01
RMM:   3    -0.712567971923E+03   -0.18470E+02   -0.14122E+02 13902   0.166E+01
RMM:   4    -0.715087033582E+03   -0.25191E+01   -0.14015E+01 15434   0.463E+00
RMM:   5    -0.715328054008E+03   -0.24102E+00   -0.28649E+00 16074   0.161E+00
RMM:   6    -0.715397335093E+03   -0.69281E-01   -0.13971E+00 16912   0.542E-01
RMM:   7    -0.715381994600E+03    0.15340E-01   -0.10321E+00 17065   0.240E-01
RMM:   8    -0.715377262672E+03    0.47319E-02   -0.91908E-01 17409   0.883E-02
RMM:   9    -0.715372965480E+03    0.42972E-02   -0.86978E-01 17360   0.454E-02
RMM:  10    -0.715371773247E+03    0.11922E-02   -0.85538E-01 17617   0.228E-02
RMM:  11    -0.715376907957E+03   -0.51347E-02   -0.90646E-01 17678   0.167E-02
RMM:  12    -0.715366775435E+03    0.10133E-01   -0.80503E-01 17700   0.139E-02
RMM:  13    -0.715378778698E+03   -0.12003E-01   -0.92505E-01 17675   0.130E-02
RMM:  14    -0.715364267793E+03    0.14511E-01   -0.77994E-01 17589   0.127E-02
 Linear response G [H, r] |phi>, progress :
  Direction:   3
       N       E                     dE             d eps       ncg     rms
RMM:   1    -0.654603216826E+03   -0.65460E+03   -0.80574E+03  8675   0.562E+02
RMM:   2    -0.683391439127E+03   -0.28788E+02   -0.12914E+03 12884   0.568E+01
RMM:   3    -0.706156869680E+03   -0.22765E+02   -0.15410E+02 14171   0.163E+01
RMM:   4    -0.708167889624E+03   -0.20110E+01   -0.14482E+01 15292   0.464E+00
RMM:   5    -0.708432292995E+03   -0.26440E+00   -0.31925E+00 15628   0.182E+00
RMM:   6    -0.708487961006E+03   -0.55668E-01   -0.37594E-01 16406   0.601E-01
RMM:   7    -0.708497996405E+03   -0.10035E-01   -0.95364E-02 16706   0.264E-01
RMM:   8    -0.708499338421E+03   -0.13420E-02   -0.12190E-02 17098   0.952E-02
RMM:   9    -0.708499668938E+03   -0.33052E-03   -0.40573E-03 17043   0.468E-02
RMM:  10    -0.708499679656E+03   -0.10718E-04   -0.10065E-03 17378   0.219E-02
RMM:  11    -0.708499687799E+03   -0.81432E-05   -0.67824E-04 17396   0.151E-02
RMM:  12    -0.708499685745E+03    0.20537E-05   -0.53314E-04 17382   0.119E-02
RMM:  13    -0.708499688324E+03   -0.25788E-05   -0.53727E-04 17353   0.109E-02
RMM:  14    -0.708499685236E+03    0.30877E-05   -0.49722E-04 17307   0.104E-02
RMM:  15    -0.708499683155E+03    0.20810E-05   -0.47455E-04 17210   0.102E-02
 Linear response to external field (no local field effect), progress :
  Direction:   1
       N       E                     dE             d eps       ncg     rms          rms(c)
RMM:   1    -0.125648285361E+02   -0.12565E+02   -0.72733E+01 16077   0.863E+00
RMM:   2    -0.195597137430E+02   -0.69949E+01   -0.14071E+00 13755   0.248E+00
RMM:   3    -0.196233010273E+02   -0.63587E-01   -0.17856E-01 14645   0.606E-01
RMM:   4    -0.196276544950E+02   -0.43535E-02   -0.23210E-02 15398   0.171E-01
RMM:   5    -0.196280553182E+02   -0.40082E-03   -0.38343E-03 15362   0.607E-02
RMM:   6    -0.196281341485E+02   -0.78830E-04   -0.78856E-04 14860   0.235E-02
RMM:   7    -0.196281488396E+02   -0.14691E-04   -0.16092E-04 14543   0.968E-03
RMM:   8    -0.196281528610E+02   -0.40214E-05   -0.46485E-05 14293   0.447E-03
RMM:   9    -0.196281537267E+02   -0.86569E-06   -0.13989E-05 14291   0.215E-03
RMM:  10    -0.196281540042E+02   -0.27756E-06   -0.75914E-06 14135   0.129E-03
RMM:  11    -0.196281540658E+02   -0.61536E-07   -0.56650E-06 13608   0.899E-04
RMM:  12    -0.196281540933E+02   -0.27529E-07   -0.53812E-06 12710   0.761E-04
RMM:  13    -0.196281540985E+02   -0.52494E-08   -0.52913E-06 11991   0.701E-04
RMM:  14    -0.196281541029E+02   -0.43980E-08   -0.53062E-06 11058   0.680E-04
RMM:  15    -0.196281541023E+02    0.65235E-09   -0.52908E-06 10458   0.672E-04
 Linear response to external field (no local field effect), progress :
  Direction:   2
       N       E                     dE             d eps       ncg     rms          rms(c)
RMM:   1    -0.141847877725E+02   -0.14185E+02   -0.84065E+01 15819   0.890E+00
RMM:   2    -0.195359127692E+02   -0.53511E+01   -0.15553E+00 13728   0.250E+00
RMM:   3    -0.196041776514E+02   -0.68265E-01   -0.20120E-01 14388   0.622E-01
RMM:   4    -0.196091320796E+02   -0.49544E-02   -0.21360E-02 15412   0.164E-01
RMM:   5    -0.196095791397E+02   -0.44706E-03   -0.41371E-03 15195   0.602E-02
RMM:   6    -0.196096542744E+02   -0.75135E-04   -0.75516E-04 14968   0.225E-02
RMM:   7    -0.196096721359E+02   -0.17861E-04   -0.19341E-04 14541   0.980E-03
RMM:   8    -0.196096759883E+02   -0.38524E-05   -0.47945E-05 14348   0.439E-03
RMM:   9    -0.196096770871E+02   -0.10988E-05   -0.18408E-05 14294   0.225E-03
RMM:  10    -0.196096773345E+02   -0.24746E-06   -0.10157E-05 14224   0.134E-03
RMM:  11    -0.196096774229E+02   -0.88338E-07   -0.85798E-06 13603   0.985E-04
RMM:  12    -0.196096774437E+02   -0.20855E-07   -0.82135E-06 12764   0.844E-04
RMM:  13    -0.196096774561E+02   -0.12396E-07   -0.82131E-06 12071   0.787E-04
RMM:  14    -0.196096774588E+02   -0.26840E-08   -0.82117E-06 11122   0.765E-04
RMM:  15    -0.196096774607E+02   -0.18759E-08   -0.82315E-06 10467   0.757E-04
 Linear response to external field (no local field effect), progress :
  Direction:   3
       N       E                     dE             d eps       ncg     rms          rms(c)
RMM:   1    -0.961852415770E+01   -0.96185E+01   -0.46467E+01 15428   0.828E+00
RMM:   2    -0.118322607093E+02   -0.22137E+01   -0.18494E+00 13434   0.226E+00
RMM:   3    -0.118822820320E+02   -0.50021E-01   -0.21675E-01 14361   0.615E-01
RMM:   4    -0.118862230600E+02   -0.39410E-02   -0.19253E-02 15237   0.169E-01
RMM:   5    -0.118865512560E+02   -0.32820E-03   -0.29174E-03 14979   0.597E-02
RMM:   6    -0.118866016562E+02   -0.50400E-04   -0.39175E-04 14662   0.203E-02
RMM:   7    -0.118866085328E+02   -0.68766E-05   -0.78595E-05 14310   0.813E-03
RMM:   8    -0.118866096083E+02   -0.10754E-05   -0.20943E-05 14255   0.343E-03
RMM:   9    -0.118866098165E+02   -0.20826E-06   -0.12168E-05 14082   0.174E-03
RMM:  10    -0.118866098412E+02   -0.24624E-07   -0.10229E-05 14019   0.110E-03
RMM:  11    -0.118866098427E+02   -0.15744E-08   -0.98803E-06 13182   0.859E-04
RMM:  12    -0.118866098419E+02    0.85934E-09   -0.98094E-06 12183   0.770E-04
RMM:  13    -0.118866098422E+02   -0.36522E-09   -0.98156E-06 11433   0.738E-04
RMM:  14    -0.118866098445E+02   -0.22626E-08   -0.98173E-06 10545   0.725E-04
 Linear response to external field, progress :
  Direction:   1
       N       E                     dE             d eps       ncg     rms          rms(c)
RMM:   1    -0.133500258296E+02   -0.13350E+02   -0.78151E+01 70320   0.865E+00
RMM:   2    -0.195499180275E+02   -0.61999E+01   -0.14736E+00 60535   0.243E+00    0.701E+00
RMM:   3    -0.191702941838E+02    0.37962E+00   -0.59720E-01 57149   0.211E+00    0.402E+00
RMM:   4    -0.195671149596E+02   -0.39682E+00   -0.43833E-01 55267   0.206E+00    0.106E+00
RMM:   5    -0.197129895317E+02   -0.14587E+00   -0.23977E-02 59191   0.513E-01    0.130E-01
RMM:   6    -0.197280757564E+02   -0.15086E-01   -0.54224E-03 64109   0.118E-01    0.755E-02
RMM:   7    -0.197359796553E+02   -0.79039E-02    0.11763E-03 63539   0.476E-02    0.298E-02
RMM:   8    -0.197398445252E+02   -0.38649E-02   -0.19348E-03 65676   0.187E-02    0.790E-03
RMM:   9    -0.197405903714E+02   -0.74585E-03    0.19017E-04 66794   0.819E-03    0.331E-03
RMM:  10    -0.197412508454E+02   -0.66047E-03   -0.16569E-04 64703   0.449E-03    0.974E-04
RMM:  11    -0.197413295210E+02   -0.78676E-04    0.49191E-05 68513   0.186E-03    0.109E-03
RMM:  12    -0.197413644353E+02   -0.34914E-04   -0.21834E-05 69590   0.110E-03    0.457E-04
RMM:  13    -0.197413804995E+02   -0.16064E-04   -0.47154E-05 66806   0.838E-04    0.662E-05
RMM:  14    -0.197413779289E+02    0.25706E-05   -0.20357E-05 65928   0.709E-04    0.353E-05
RMM:  15    -0.197413770759E+02    0.85295E-06   -0.13737E-05 58779   0.674E-04    0.426E-05
RMM:  16    -0.197413765842E+02    0.49173E-06   -0.13549E-05 49590   0.661E-04    0.120E-05
RMM:  17    -0.197413765709E+02    0.13302E-07   -0.13984E-05 45689   0.658E-04    0.134E-05
RMM:  18    -0.197413764047E+02    0.16613E-06   -0.13298E-05 43776   0.657E-04    0.827E-06
 Linear response to external field, progress :
  Direction:   2
       N       E                     dE             d eps       ncg     rms          rms(c)
RMM:   1    -0.134583520358E+02   -0.13458E+02   -0.79234E+01 38907   0.866E+00
RMM:   2    -0.195463111559E+02   -0.60880E+01   -0.15050E+00 33640   0.246E+00    0.701E+00
RMM:   3    -0.191702296470E+02    0.37608E+00   -0.59877E-01 31634   0.211E+00    0.402E+00
RMM:   4    -0.195740947510E+02   -0.40387E+00   -0.50193E-01 30473   0.206E+00    0.106E+00
RMM:   5    -0.197137137835E+02   -0.13962E+00   -0.28074E-02 32845   0.517E-01    0.153E-01
RMM:   6    -0.197282288256E+02   -0.14515E-01   -0.14369E-02 35613   0.117E-01    0.801E-02
RMM:   7    -0.197323818379E+02   -0.41530E-02    0.52549E-03 36700   0.420E-02    0.506E-02
RMM:   8    -0.197395797316E+02   -0.71979E-02   -0.30073E-03 33334   0.279E-02    0.107E-02
RMM:   9    -0.197403837436E+02   -0.80401E-03    0.16817E-04 36399   0.960E-03    0.388E-03
RMM:  10    -0.197409507917E+02   -0.56705E-03    0.31637E-04 36516   0.449E-03    0.375E-03
RMM:  11    -0.197411538265E+02   -0.20303E-03   -0.16467E-04 37452   0.206E-03    0.248E-03
RMM:  12    -0.197413127187E+02   -0.15889E-03    0.23782E-05 33387   0.166E-03    0.540E-04
RMM:  13    -0.197413310244E+02   -0.18306E-04   -0.17501E-05 38413   0.934E-04    0.309E-04
RMM:  14    -0.197413315624E+02   -0.53798E-06    0.20340E-06 36867   0.738E-04    0.119E-04
RMM:  15    -0.197413361479E+02   -0.45856E-05   -0.98136E-06 34879   0.694E-04    0.458E-05
RMM:  16    -0.197413356017E+02    0.54628E-06   -0.12810E-05 30784   0.659E-04    0.219E-05
RMM:  17    -0.197413354672E+02    0.13441E-06   -0.10437E-05 26058   0.651E-04    0.163E-05
RMM:  18    -0.197413354188E+02    0.48425E-07   -0.12227E-05 25071   0.650E-04    0.922E-06
 Linear response to external field, progress :
  Direction:   3
       N       E                     dE             d eps       ncg     rms          rms(c)
RMM:   1    -0.961852415770E+01   -0.96185E+01   -0.46467E+01 15428   0.828E+00
RMM:   2    -0.118322607093E+02   -0.22137E+01   -0.18494E+00 13434   0.226E+00    0.626E+00
RMM:   3    -0.849393104322E+01    0.33383E+01   -0.56537E+01 12640   0.501E+00    0.245E+00
RMM:   4    -0.850603256388E+01   -0.12102E-01   -0.52753E+01 14046   0.184E+00    0.124E+00
RMM:   5    -0.694802725919E+01    0.15580E+01   -0.38668E+01 13819   0.872E-01    0.965E-01
RMM:   6    -0.714549781466E+01   -0.19747E+00   -0.44174E+01 13429   0.907E-01    0.322E-01
RMM:   7    -0.539822270353E+01    0.17473E+01   -0.27263E+01 14478   0.409E-01    0.325E-01
RMM:   8    -0.472394194079E+01    0.67428E+00   -0.20769E+01 13576   0.270E-01    0.163E-01
RMM:   9    -0.386225391597E+01    0.86169E+00   -0.12212E+01 13665   0.161E-01    0.876E-02
RMM:  10    -0.328708088711E+01    0.57517E+00   -0.64654E+00 14383   0.605E-02    0.746E-02
RMM:  11    -0.303889936497E+01    0.24818E+00   -0.39878E+00 12844   0.474E-02    0.324E-02
RMM:  12    -0.286067938996E+01    0.17822E+00   -0.21955E+00 12281   0.385E-02    0.175E-02
RMM:  13    -0.273215307391E+01    0.12853E+00   -0.89192E-01 11557   0.340E-02    0.855E-03
RMM:  14    -0.270520660056E+01    0.26946E-01   -0.61456E-01 12533   0.154E-02    0.600E-03
RMM:  15    -0.267413372028E+01    0.31073E-01   -0.29908E-01 11705   0.104E-02    0.337E-03
RMM:  16    -0.266299318638E+01    0.11141E-01   -0.18632E-01 12406   0.621E-03    0.219E-03
RMM:  17    -0.265318045452E+01    0.98127E-02   -0.87685E-02 12055   0.530E-03    0.163E-03
RMM:  18    -0.264971517719E+01    0.34653E-02   -0.52999E-02 11263   0.464E-03    0.931E-04
RMM:  19    -0.264652243424E+01    0.31927E-02   -0.21600E-02 11631   0.304E-03    0.370E-04
RMM:  20    -0.264545658725E+01    0.10658E-02   -0.11150E-02 12771   0.117E-03    0.188E-04
RMM:  21    -0.264477358374E+01    0.68300E-03   -0.43749E-03 13065   0.472E-04    0.764E-05
RMM:  22    -0.264440711792E+01    0.36647E-03   -0.76982E-04 12543   0.357E-04    0.351E-05
RMM:  23    -0.264428558368E+01    0.12153E-03    0.43608E-04 12145   0.210E-04    0.196E-05
RMM:  24    -0.264419910835E+01    0.86475E-04    0.12942E-03 10700   0.189E-04    0.142E-05
RMM:  25    -0.264409769653E+01    0.10141E-03    0.23056E-03  9788   0.180E-04    0.938E-06
