unknown system                          
           1
     3.550076    0.000000    0.000000
    -1.775038    3.074456    0.000000
     0.000000    0.000000   50.000000
   W    Te
   5  10
Direct configuration=     1
   0.16666667  0.33333333  0.21760000
   0.83333333  0.66666667  0.35880000
   0.16666667  0.33333333  0.50000000
   0.83333333  0.66666667  0.64120000
   0.16666667  0.33333333  0.78240000
   0.83333333  0.66666667  0.25383924
   0.83333333  0.66666667  0.18136076
   0.16666667  0.33333333  0.39503924
   0.16666667  0.33333333  0.32256076
   0.83333333  0.66666667  0.53623924
   0.83333333  0.66666667  0.46376076
   0.16666667  0.33333333  0.67743924
   0.16666667  0.33333333  0.60496076
   0.83333333  0.66666667  0.81863924
   0.83333333  0.66666667  0.74616076
