   6   6   0   0
  0.7325313E+02  0.3185946E-09  0.3185946E-09  0.5000000E-08  0.5000000E-15
  1.000000000000000E-004
  CAR 
 unknown system                          
     14.04964268    -80.96556727  301     -2.02376367      1.00000000
    -80.966  0.0000E+00  0.0000E+00
    -80.649  0.0000E+00  0.0000E+00
    -80.332  0.0000E+00  0.0000E+00
    -80.015  0.0000E+00  0.0000E+00
    -79.699  0.0000E+00  0.0000E+00
    -79.382  0.0000E+00  0.0000E+00
    -79.065  0.0000E+00  0.0000E+00
    -78.749  0.0000E+00  0.0000E+00
    -78.432  0.0000E+00  0.0000E+00
    -78.115  0.0000E+00  0.0000E+00
    -77.798  0.0000E+00  0.0000E+00
    -77.482  0.0000E+00  0.0000E+00
    -77.165  0.0000E+00  0.0000E+00
    -76.848  0.0000E+00  0.0000E+00
    -76.532  0.0000E+00  0.4000E+01
    -76.215  0.0000E+00  0.4000E+01
    -75.898  0.0000E+00  0.4000E+01
    -75.581  0.0000E+00  0.4000E+01
    -75.265  0.0000E+00  0.4000E+01
    -74.948  0.0000E+00  0.4000E+01
    -74.631  0.0000E+00  0.4000E+01
    -74.315  0.0000E+00  0.4000E+01
    -73.998  0.0000E+00  0.4000E+01
    -73.681  0.0000E+00  0.4000E+01
    -73.364  0.0000E+00  0.4000E+01
    -73.048  0.0000E+00  0.4000E+01
    -72.731  0.0000E+00  0.4000E+01
    -72.414  0.0000E+00  0.4000E+01
    -72.097  0.0000E+00  0.4000E+01
    -71.781  0.0000E+00  0.4000E+01
    -71.464  0.0000E+00  0.4000E+01
    -71.147  0.0000E+00  0.4000E+01
    -70.831  0.0000E+00  0.4000E+01
    -70.514  0.0000E+00  0.4000E+01
    -70.197  0.0000E+00  0.4000E+01
    -69.880  0.0000E+00  0.4000E+01
    -69.564  0.0000E+00  0.4000E+01
    -69.247  0.0000E+00  0.4000E+01
    -68.930  0.0000E+00  0.4000E+01
    -68.614  0.0000E+00  0.4000E+01
    -68.297  0.0000E+00  0.4000E+01
    -67.980  0.0000E+00  0.4000E+01
    -67.663  0.0000E+00  0.4000E+01
    -67.347  0.0000E+00  0.4000E+01
    -67.030  0.0000E+00  0.4000E+01
    -66.713  0.0000E+00  0.4000E+01
    -66.397  0.0000E+00  0.4000E+01
    -66.080  0.0000E+00  0.4000E+01
    -65.763  0.0000E+00  0.4000E+01
    -65.446  0.0000E+00  0.4000E+01
    -65.130  0.0000E+00  0.4000E+01
    -64.813  0.0000E+00  0.4000E+01
    -64.496  0.0000E+00  0.4000E+01
    -64.180  0.0000E+00  0.4000E+01
    -63.863  0.0000E+00  0.4000E+01
    -63.546  0.0000E+00  0.4000E+01
    -63.229  0.0000E+00  0.4000E+01
    -62.913  0.0000E+00  0.4000E+01
    -62.596  0.0000E+00  0.4000E+01
    -62.279  0.0000E+00  0.4000E+01
    -61.963  0.0000E+00  0.4000E+01
    -61.646  0.0000E+00  0.4000E+01
    -61.329  0.0000E+00  0.4000E+01
    -61.012  0.0000E+00  0.4000E+01
    -60.696  0.0000E+00  0.4000E+01
    -60.379  0.0000E+00  0.4000E+01
    -60.062  0.0000E+00  0.4000E+01
    -59.746  0.0000E+00  0.4000E+01
    -59.429  0.0000E+00  0.4000E+01
    -59.112  0.0000E+00  0.4000E+01
    -58.795  0.0000E+00  0.4000E+01
    -58.479  0.0000E+00  0.4000E+01
    -58.162  0.0000E+00  0.4000E+01
    -57.845  0.0000E+00  0.4000E+01
    -57.528  0.0000E+00  0.4000E+01
    -57.212  0.0000E+00  0.4000E+01
    -56.895  0.0000E+00  0.4000E+01
    -56.578  0.0000E+00  0.4000E+01
    -56.262  0.0000E+00  0.4000E+01
    -55.945  0.0000E+00  0.4000E+01
    -55.628  0.0000E+00  0.4000E+01
    -55.311  0.0000E+00  0.4000E+01
    -54.995  0.0000E+00  0.4000E+01
    -54.678  0.0000E+00  0.4000E+01
    -54.361  0.0000E+00  0.4000E+01
    -54.045  0.0000E+00  0.4000E+01
    -53.728  0.0000E+00  0.4000E+01
    -53.411  0.0000E+00  0.4000E+01
    -53.094  0.0000E+00  0.4000E+01
    -52.778  0.0000E+00  0.4000E+01
    -52.461  0.0000E+00  0.4000E+01
    -52.144  0.0000E+00  0.4000E+01
    -51.828  0.0000E+00  0.4000E+01
    -51.511  0.0000E+00  0.4000E+01
    -51.194  0.0000E+00  0.4000E+01
    -50.877  0.0000E+00  0.4000E+01
    -50.561  0.0000E+00  0.4000E+01
    -50.244  0.0000E+00  0.4000E+01
    -49.927  0.0000E+00  0.4000E+01
    -49.611  0.0000E+00  0.4000E+01
    -49.294  0.0000E+00  0.4000E+01
    -48.977  0.0000E+00  0.4000E+01
    -48.660  0.0000E+00  0.4000E+01
    -48.344  0.0000E+00  0.4000E+01
    -48.027  0.0000E+00  0.4000E+01
    -47.710  0.0000E+00  0.4000E+01
    -47.394  0.0000E+00  0.4000E+01
    -47.077  0.0000E+00  0.4000E+01
    -46.760  0.0000E+00  0.4000E+01
    -46.443  0.0000E+00  0.4000E+01
    -46.127  0.0000E+00  0.4000E+01
    -45.810  0.0000E+00  0.4000E+01
    -45.493  0.0000E+00  0.4000E+01
    -45.177  0.0000E+00  0.4000E+01
    -44.860  0.0000E+00  0.4000E+01
    -44.543  0.0000E+00  0.4000E+01
    -44.226  0.0000E+00  0.4000E+01
    -43.910  0.0000E+00  0.4000E+01
    -43.593  0.0000E+00  0.4000E+01
    -43.276  0.0000E+00  0.4000E+01
    -42.959  0.0000E+00  0.4000E+01
    -42.643  0.0000E+00  0.4000E+01
    -42.326  0.0000E+00  0.4000E+01
    -42.009  0.0000E+00  0.4000E+01
    -41.693  0.0000E+00  0.4000E+01
    -41.376  0.0000E+00  0.4000E+01
    -41.059  0.0000E+00  0.4000E+01
    -40.742  0.2448E+02  0.1549E+02
    -40.426  0.0000E+00  0.1600E+02
    -40.109  0.0000E+00  0.1600E+02
    -39.792  0.0000E+00  0.1600E+02
    -39.476  0.0000E+00  0.1600E+02
    -39.159  0.0000E+00  0.1600E+02
    -38.842  0.0000E+00  0.1600E+02
    -38.525  0.0000E+00  0.1600E+02
    -38.209  0.0000E+00  0.1600E+02
    -37.892  0.0000E+00  0.1600E+02
    -37.575  0.0000E+00  0.1600E+02
    -37.259  0.0000E+00  0.1600E+02
    -36.942  0.0000E+00  0.1600E+02
    -36.625  0.0000E+00  0.1600E+02
    -36.308  0.0000E+00  0.1600E+02
    -35.992  0.0000E+00  0.1600E+02
    -35.675  0.0000E+00  0.1600E+02
    -35.358  0.0000E+00  0.1600E+02
    -35.042  0.0000E+00  0.1600E+02
    -34.725  0.0000E+00  0.1600E+02
    -34.408  0.0000E+00  0.1600E+02
    -34.091  0.0000E+00  0.1600E+02
    -33.775  0.0000E+00  0.1600E+02
    -33.458  0.0000E+00  0.1600E+02
    -33.141  0.0000E+00  0.1600E+02
    -32.825  0.0000E+00  0.1600E+02
    -32.508  0.0000E+00  0.1600E+02
    -32.191  0.0000E+00  0.1600E+02
    -31.874  0.0000E+00  0.1600E+02
    -31.558  0.0000E+00  0.1600E+02
    -31.241  0.0000E+00  0.1600E+02
    -30.924  0.0000E+00  0.1600E+02
    -30.608  0.0000E+00  0.1600E+02
    -30.291  0.0000E+00  0.1600E+02
    -29.974  0.0000E+00  0.1600E+02
    -29.657  0.0000E+00  0.1600E+02
    -29.341  0.0000E+00  0.1600E+02
    -29.024  0.0000E+00  0.1600E+02
    -28.707  0.0000E+00  0.1600E+02
    -28.390  0.0000E+00  0.1600E+02
    -28.074  0.0000E+00  0.1600E+02
    -27.757  0.0000E+00  0.1600E+02
    -27.440  0.0000E+00  0.1600E+02
    -27.124  0.0000E+00  0.1600E+02
    -26.807  0.0000E+00  0.1600E+02
    -26.490  0.0000E+00  0.1600E+02
    -26.173  0.0000E+00  0.1600E+02
    -25.857  0.0000E+00  0.1600E+02
    -25.540  0.0000E+00  0.1600E+02
    -25.223  0.0000E+00  0.1600E+02
    -24.907  0.0000E+00  0.1600E+02
    -24.590  0.0000E+00  0.1600E+02
    -24.273  0.0000E+00  0.1600E+02
    -23.956  0.0000E+00  0.1600E+02
    -23.640  0.0000E+00  0.1600E+02
    -23.323  0.0000E+00  0.1600E+02
    -23.006  0.0000E+00  0.1600E+02
    -22.690  0.0000E+00  0.1600E+02
    -22.373  0.0000E+00  0.1600E+02
    -22.056  0.0000E+00  0.1600E+02
    -21.739  0.0000E+00  0.1600E+02
    -21.423  0.0000E+00  0.1600E+02
    -21.106  0.0000E+00  0.1600E+02
    -20.789  0.0000E+00  0.1600E+02
    -20.473  0.0000E+00  0.1600E+02
    -20.156  0.0000E+00  0.1600E+02
    -19.839  0.0000E+00  0.1600E+02
    -19.522  0.0000E+00  0.1600E+02
    -19.206  0.0000E+00  0.1600E+02
    -18.889  0.0000E+00  0.1600E+02
    -18.572  0.0000E+00  0.1600E+02
    -18.256  0.0000E+00  0.1600E+02
    -17.939  0.0000E+00  0.1600E+02
    -17.622  0.0000E+00  0.1600E+02
    -17.305  0.4230E+00  0.1603E+02
    -16.989  0.9544E+00  0.1631E+02
    -16.672  0.1041E+01  0.1662E+02
    -16.355  0.1166E+01  0.1697E+02
    -16.039  0.1355E+01  0.1737E+02
    -15.722  0.2841E+01  0.1795E+02
    -15.405  0.5617E+01  0.1928E+02
    -15.088  0.8097E+01  0.2160E+02
    -14.772  0.0000E+00  0.2400E+02
    -14.455  0.0000E+00  0.2400E+02
    -14.138  0.0000E+00  0.2400E+02
    -13.821  0.0000E+00  0.2400E+02
    -13.505  0.0000E+00  0.2400E+02
    -13.188  0.0000E+00  0.2400E+02
    -12.871  0.0000E+00  0.2400E+02
    -12.555  0.0000E+00  0.2400E+02
    -12.238  0.0000E+00  0.2400E+02
    -11.921  0.0000E+00  0.2400E+02
    -11.604  0.0000E+00  0.2400E+02
    -11.288  0.0000E+00  0.2400E+02
    -10.971  0.0000E+00  0.2400E+02
    -10.654  0.0000E+00  0.2400E+02
    -10.338  0.0000E+00  0.2400E+02
    -10.021  0.0000E+00  0.2400E+02
     -9.704  0.0000E+00  0.2400E+02
     -9.387  0.0000E+00  0.2400E+02
     -9.071  0.1474E+01  0.2408E+02
     -8.754  0.2536E+01  0.2471E+02
     -8.437  0.3961E+01  0.2572E+02
     -8.121  0.5214E+01  0.2749E+02
     -7.804  0.4956E+01  0.2891E+02
     -7.487  0.2309E+01  0.2983E+02
     -7.170  0.1679E+01  0.3063E+02
     -6.854  0.4221E+01  0.3265E+02
     -6.537  0.1703E+01  0.3443E+02
     -6.220  0.4344E+01  0.3540E+02
     -5.904  0.7213E+01  0.3767E+02
     -5.587  0.3326E+01  0.3920E+02
     -5.270  0.4087E+01  0.4029E+02
     -4.953  0.1870E+01  0.4130E+02
     -4.637  0.7601E+01  0.4381E+02
     -4.320  0.4945E+01  0.4570E+02
     -4.003  0.3748E+01  0.4733E+02
     -3.687  0.3376E+01  0.4809E+02
     -3.370  0.5888E+01  0.4972E+02
     -3.053  0.3043E+01  0.5099E+02
     -2.736  0.1208E+01  0.5174E+02
     -2.420  0.2999E+00  0.5192E+02
     -2.103  0.0000E+00  0.5200E+02
     -1.786  0.0000E+00  0.5200E+02
     -1.470  0.0000E+00  0.5200E+02
     -1.153  0.0000E+00  0.5200E+02
     -0.836  0.0000E+00  0.5200E+02
     -0.519  0.3091E+01  0.5253E+02
     -0.203  0.4734E+01  0.5382E+02
      0.114  0.1148E+02  0.5637E+02
      0.431  0.7768E+01  0.5904E+02
      0.748  0.7005E+01  0.6130E+02
      1.064  0.4089E+01  0.6280E+02
      1.381  0.2381E+01  0.6423E+02
      1.698  0.2803E+01  0.6506E+02
      2.014  0.2794E+01  0.6623E+02
      2.331  0.1952E+01  0.6726E+02
      2.648  0.2058E+01  0.6788E+02
      2.965  0.1618E+01  0.6851E+02
      3.281  0.2672E+01  0.6921E+02
      3.598  0.3574E+01  0.7023E+02
      3.915  0.4919E+01  0.7155E+02
      4.231  0.4710E+01  0.7317E+02
      4.548  0.4865E+01  0.7454E+02
      4.865  0.6124E+01  0.7643E+02
      5.182  0.8209E+01  0.7847E+02
      5.498  0.6328E+01  0.8062E+02
      5.815  0.6864E+01  0.8266E+02
      6.132  0.6948E+01  0.8464E+02
      6.448  0.1179E+02  0.8735E+02
      6.765  0.9894E+01  0.9059E+02
      7.082  0.9339E+01  0.9364E+02
      7.399  0.8065E+01  0.9647E+02
      7.715  0.9964E+01  0.9936E+02
      8.032  0.8356E+01  0.1023E+03
      8.349  0.7062E+01  0.1051E+03
      8.665  0.8070E+01  0.1079E+03
      8.982  0.6025E+01  0.1100E+03
      9.299  0.2194E+01  0.1113E+03
      9.616  0.1756E+01  0.1118E+03
      9.932  0.0000E+00  0.1120E+03
     10.249  0.0000E+00  0.1120E+03
     10.566  0.0000E+00  0.1120E+03
     10.882  0.0000E+00  0.1120E+03
     11.199  0.0000E+00  0.1120E+03
     11.516  0.0000E+00  0.1120E+03
     11.833  0.0000E+00  0.1120E+03
     12.149  0.0000E+00  0.1120E+03
     12.466  0.0000E+00  0.1120E+03
     12.783  0.0000E+00  0.1120E+03
     13.099  0.0000E+00  0.1120E+03
     13.416  0.0000E+00  0.1120E+03
     13.733  0.0000E+00  0.1120E+03
     14.050  0.0000E+00  0.1120E+03
