       N       E                     dE             d eps       ncg     rms          rms(c)
DAV:   1     0.227707040598E+03    0.22771E+03   -0.21609E+04  5740   0.492E+02
DAV:   2    -0.467559478013E+02   -0.27446E+03   -0.26297E+03  7084   0.156E+02
DAV:   3    -0.566507732910E+02   -0.98948E+01   -0.97910E+01  4844   0.317E+01
DAV:   4    -0.569000834623E+02   -0.24931E+00   -0.24916E+00  6944   0.431E+00
DAV:   5    -0.569014676026E+02   -0.13841E-02   -0.13841E-02  4956   0.304E-01    0.109E+02
DAV:   6    -0.519020247708E+02    0.49994E+01   -0.16798E+01  4172   0.126E+01    0.105E+02
DAV:   7    -0.519148262323E+02   -0.12801E-01   -0.57457E+00  5292   0.743E+00    0.719E+00
DAV:   8    -0.513507664752E+02    0.56406E+00   -0.17311E+00  5068   0.433E+00    0.547E+00
DAV:   9    -0.513392094601E+02    0.11557E-01   -0.14314E-01  5768   0.132E+00    0.281E+00
DAV:  10    -0.513399267275E+02   -0.71727E-03   -0.10826E-02  5964   0.341E-01    0.424E-01
DAV:  11    -0.513391292722E+02    0.79746E-03   -0.25819E-03  5852   0.166E-01    0.198E-01
DAV:  12    -0.513390738603E+02    0.55412E-04   -0.19662E-04  6272   0.455E-02    0.153E-01
DAV:  13    -0.513390604400E+02    0.13420E-04   -0.49033E-05  5796   0.209E-02    0.972E-03
DAV:  14    -0.513391108894E+02   -0.50449E-04   -0.14168E-05  5656   0.945E-03    0.204E-02
DAV:  15    -0.513391720123E+02   -0.61123E-04   -0.56017E-06  5348   0.575E-03    0.527E-03
DAV:  16    -0.513392569101E+02   -0.84898E-04   -0.49698E-06  4816   0.491E-03    0.569E-03
DAV:  17    -0.513392931880E+02   -0.36278E-04   -0.96177E-07  5068   0.232E-03    0.138E-03
DAV:  18    -0.513393285268E+02   -0.35339E-04   -0.35446E-07  4760   0.139E-03    0.932E-03
DAV:  19    -0.513393399121E+02   -0.11385E-04   -0.12341E-07  5124   0.853E-04    0.384E-03
DAV:  20    -0.513393466246E+02   -0.67124E-05   -0.59732E-08  4984   0.549E-04    0.191E-03
DAV:  21    -0.513393507748E+02   -0.41502E-05   -0.26263E-08  4844   0.453E-04    0.387E-04
DAV:  22    -0.513393525251E+02   -0.17504E-05   -0.63997E-09  4844   0.248E-04    0.889E-05
DAV:  23    -0.513393534497E+02   -0.92453E-06   -0.26523E-09  4340   0.182E-04    0.561E-05
DAV:  24    -0.513393541480E+02   -0.69834E-06   -0.17428E-09  4228   0.172E-04    0.147E-04
DAV:  25    -0.513393542675E+02   -0.11946E-06   -0.72351E-11  4284   0.524E-05    0.170E-05
DAV:  26    -0.513393543242E+02   -0.56704E-07   -0.51140E-11  3724   0.371E-05    0.513E-05
DAV:  27    -0.513393543454E+02   -0.21233E-07    0.43050E-11  3808   0.208E-05    0.255E-05
DAV:  28    -0.513393543532E+02   -0.78089E-08    0.28049E-11  3780   0.140E-05
   1 F= -.52791363E+02 E0= -.52791363E+02  d E =0.000000E+00
 Linear response reoptimize wavefunctions
DAV:   1    -0.513393543558E+02    0.14520E+01    0.20639E-11  3640   0.109E-05
DAV:   2    -0.513393543558E+02    0.14552E-10    0.84872E-12  4928   0.163E-06
 Linear response G [H, r] |phi>, progress :
  Direction:   1
       N       E                     dE             d eps       ncg     rms
RMM:   1    -0.227945683904E+03   -0.22795E+03    0.93072E+02 10603   0.904E+01
RMM:   2    -0.221253069773E+03    0.66926E+01   -0.53063E+01  9375   0.189E+01
RMM:   3    -0.221932237273E+03   -0.67917E+00   -0.29434E+00  9731   0.423E+00
RMM:   4    -0.221946465013E+03   -0.14228E-01   -0.15403E-01 10516   0.794E-01
RMM:   5    -0.221946074141E+03    0.39087E-03   -0.88544E-03 10178   0.201E-01
RMM:   6    -0.221946172172E+03   -0.98031E-04   -0.71725E-04 10892   0.483E-02
RMM:   7    -0.221946170087E+03    0.20846E-05   -0.77973E-05 10678   0.143E-02
RMM:   8    -0.221946168868E+03    0.12192E-05   -0.21930E-05 11372   0.519E-03
RMM:   9    -0.221946171312E+03   -0.24443E-05   -0.42317E-05 11282   0.278E-03
RMM:  10    -0.221946172489E+03   -0.11767E-05   -0.53806E-05 11014   0.226E-03
RMM:  11    -0.221946169544E+03    0.29449E-05   -0.24317E-05 10516   0.216E-03
RMM:  12    -0.221946171882E+03   -0.23382E-05   -0.47697E-05 10252   0.215E-03
 Linear response G [H, r] |phi>, progress :
  Direction:   2
       N       E                     dE             d eps       ncg     rms
RMM:   1    -0.231348452602E+03   -0.23135E+03    0.84664E+02 10540   0.904E+01
RMM:   2    -0.229992337826E+03    0.13561E+01   -0.52800E+01  9328   0.188E+01
RMM:   3    -0.230534275793E+03   -0.54194E+00   -0.29305E+00  9761   0.419E+00
RMM:   4    -0.230554292036E+03   -0.20016E-01   -0.17077E-01 10472   0.815E-01
RMM:   5    -0.230554042212E+03    0.24982E-03   -0.81314E-03 10105   0.198E-01
RMM:   6    -0.230554172510E+03   -0.13030E-03   -0.74360E-04 10837   0.503E-02
RMM:   7    -0.230554171817E+03    0.69360E-06   -0.83667E-05 10663   0.144E-02
RMM:   8    -0.230554174142E+03   -0.23248E-05   -0.63619E-05 11376   0.517E-03
RMM:   9    -0.230554171919E+03    0.22225E-05   -0.37162E-05 11276   0.268E-03
RMM:  10    -0.230554173711E+03   -0.17923E-05   -0.54800E-05 11006   0.216E-03
RMM:  11    -0.230554172231E+03    0.14800E-05   -0.39970E-05 10570   0.207E-03
RMM:  12    -0.230554171406E+03    0.82579E-06   -0.31711E-05 10317   0.205E-03
 Linear response G [H, r] |phi>, progress :
  Direction:   3
       N       E                     dE             d eps       ncg     rms
RMM:   1    -0.239196076674E+03   -0.23920E+03    0.95054E+02 10433   0.921E+01
RMM:   2    -0.226795693574E+03    0.12400E+02   -0.65029E+01  9206   0.189E+01
RMM:   3    -0.226736435361E+03    0.59258E-01   -0.39831E+00  9504   0.468E+00
RMM:   4    -0.226756164795E+03   -0.19729E-01   -0.18687E-01 10236   0.861E-01
RMM:   5    -0.226755665351E+03    0.49944E-03   -0.10524E-02  9725   0.216E-01
RMM:   6    -0.226755788281E+03   -0.12293E-03   -0.73402E-04 10276   0.496E-02
RMM:   7    -0.226755787400E+03    0.88049E-06   -0.55473E-05 10248   0.141E-02
RMM:   8    -0.226755787677E+03   -0.27639E-06   -0.48465E-06 10971   0.396E-03
RMM:   9    -0.226755787658E+03    0.18555E-07   -0.49510E-07 10901   0.161E-03
RMM:  10    -0.226755787660E+03   -0.17764E-08   -0.18569E-07 10553   0.104E-03
RMM:  11    -0.226755787662E+03   -0.21076E-08   -0.17461E-07 10079   0.934E-04
RMM:  12    -0.226755787660E+03    0.22870E-08   -0.14801E-07  9878   0.916E-04
RMM:  13    -0.226755787661E+03   -0.17257E-08   -0.16386E-07  9789   0.911E-04
 Linear response to external field (no local field effect), progress :
  Direction:   1
       N       E                     dE             d eps       ncg     rms          rms(c)
RMM:   1    -0.361325169122E+01   -0.36133E+01   -0.23283E+01 10809   0.362E+00
RMM:   2    -0.419440304867E+01   -0.58115E+00   -0.15347E-01  8716   0.776E-01
RMM:   3    -0.419785005038E+01   -0.34470E-02   -0.10724E-02  9259   0.166E-01
RMM:   4    -0.419796935344E+01   -0.11930E-03   -0.50070E-04  9925   0.337E-02
RMM:   5    -0.419797338648E+01   -0.40330E-05   -0.22423E-05  9779   0.682E-03
RMM:   6    -0.419797347364E+01   -0.87160E-07   -0.99549E-07  9816   0.148E-03
RMM:   7    -0.419797347538E+01   -0.17335E-08   -0.38728E-08  9475   0.346E-04
 Linear response to external field (no local field effect), progress :
  Direction:   2
       N       E                     dE             d eps       ncg     rms          rms(c)
RMM:   1    -0.354475245826E+01   -0.35448E+01   -0.22250E+01 10677   0.366E+00
RMM:   2    -0.393497807851E+01   -0.39023E+00   -0.13154E-01  8688   0.758E-01
RMM:   3    -0.393772755760E+01   -0.27495E-02   -0.94989E-03  9242   0.169E-01
RMM:   4    -0.393782268465E+01   -0.95127E-04   -0.44229E-04  9957   0.343E-02
RMM:   5    -0.393782557869E+01   -0.28940E-05   -0.15023E-05  9768   0.664E-03
RMM:   6    -0.393782562881E+01   -0.50125E-07   -0.66829E-07  9791   0.150E-03
RMM:   7    -0.393782563214E+01   -0.33262E-08   -0.39407E-08  9449   0.363E-04
 Linear response to external field (no local field effect), progress :
  Direction:   3
       N       E                     dE             d eps       ncg     rms          rms(c)
RMM:   1    -0.213112210065E+01   -0.21311E+01   -0.10448E+01 10743   0.331E+00
RMM:   2    -0.228189788510E+01   -0.15078E+00   -0.66621E-02  8417   0.618E-01
RMM:   3    -0.228298903021E+01   -0.10911E-02   -0.49882E-03  9033   0.139E-01
RMM:   4    -0.228303642601E+01   -0.47396E-04   -0.21413E-04  9760   0.276E-02
RMM:   5    -0.228303783894E+01   -0.14129E-05   -0.11067E-05  9451   0.596E-03
RMM:   6    -0.228303787275E+01   -0.33811E-07   -0.52955E-07  9491   0.131E-03
RMM:   7    -0.228303787537E+01   -0.26143E-08   -0.34421E-08  8990   0.319E-04
 Linear response to external field, progress :
  Direction:   1
       N       E                     dE             d eps       ncg     rms          rms(c)
RMM:   1    -0.357869185324E+01   -0.35787E+01   -0.22763E+01 26224   0.361E+00
RMM:   2    -0.406466742058E+01   -0.48598E+00   -0.14276E-01 21279   0.761E-01    0.360E+00
RMM:   3    -0.393120385556E+01    0.13346E+00   -0.12280E-01 19117   0.103E+00    0.197E+00
RMM:   4    -0.401130114616E+01   -0.80097E-01   -0.96327E-02 19031   0.966E-01    0.530E-01
RMM:   5    -0.404498617188E+01   -0.33685E-01   -0.30834E-03 18357   0.193E-01    0.457E-02
RMM:   6    -0.404740132675E+01   -0.24152E-02   -0.47678E-04 22164   0.350E-02    0.219E-02
RMM:   7    -0.404782484190E+01   -0.42352E-03    0.26956E-04 20968   0.144E-02    0.833E-03
RMM:   8    -0.404842302849E+01   -0.59819E-03   -0.27808E-04 21550   0.386E-03    0.405E-03
RMM:   9    -0.404864982009E+01   -0.22679E-03    0.16847E-04 20844   0.192E-03    0.827E-04
RMM:  10    -0.404870379423E+01   -0.53974E-04    0.56403E-07 21339   0.617E-04    0.303E-04
RMM:  11    -0.404871945412E+01   -0.15660E-04   -0.21416E-06 21233   0.255E-04    0.777E-05
RMM:  12    -0.404872019810E+01   -0.74398E-06    0.43447E-06 22137   0.775E-05    0.353E-05
RMM:  13    -0.404872060490E+01   -0.40681E-06    0.16395E-07 16870   0.270E-05    0.799E-06
 Linear response to external field, progress :
  Direction:   2
       N       E                     dE             d eps       ncg     rms          rms(c)
RMM:   1    -0.358120460679E+01   -0.35812E+01   -0.22788E+01 26347   0.361E+00
RMM:   2    -0.406462408671E+01   -0.48342E+00   -0.14438E-01 21239   0.763E-01    0.360E+00
RMM:   3    -0.393165143596E+01    0.13297E+00   -0.12442E-01 19381   0.103E+00    0.198E+00
RMM:   4    -0.401162418433E+01   -0.79973E-01   -0.98133E-02 19218   0.965E-01    0.529E-01
RMM:   5    -0.404440905479E+01   -0.32785E-01   -0.23330E-03 18606   0.191E-01    0.511E-02
RMM:   6    -0.404745814257E+01   -0.30491E-02   -0.16896E-03 22412   0.352E-02    0.276E-02
RMM:   7    -0.404764519494E+01   -0.18705E-03    0.67746E-04 22073   0.116E-02    0.131E-02
RMM:   8    -0.404827089507E+01   -0.62570E-03   -0.35193E-04 20187   0.658E-03    0.543E-03
RMM:   9    -0.404857678231E+01   -0.30589E-03    0.17326E-04 20997   0.246E-03    0.140E-03
RMM:  10    -0.404870732501E+01   -0.13054E-03   -0.49094E-05 20754   0.952E-04    0.504E-04
RMM:  11    -0.404871330349E+01   -0.59785E-05    0.17665E-05 22204   0.295E-04    0.126E-04
RMM:  12    -0.404872029654E+01   -0.69931E-05   -0.23171E-07 21309   0.104E-04    0.593E-05
RMM:  13    -0.404872094420E+01   -0.64767E-06   -0.59866E-07 18938   0.373E-05    0.278E-05
RMM:  14    -0.404872052480E+01    0.41940E-06    0.19205E-07 14013   0.198E-05    0.695E-06
 Linear response to external field, progress :
  Direction:   3
       N       E                     dE             d eps       ncg     rms          rms(c)
RMM:   1    -0.213112210064E+01   -0.21311E+01   -0.10448E+01 10743   0.331E+00
RMM:   2    -0.228189788510E+01   -0.15078E+00   -0.66621E-02  8417   0.618E-01    0.341E+00
RMM:   3    -0.610255411644E+00    0.16716E+01   -0.16107E+00  7969   0.224E+00    0.198E+00
RMM:   4    -0.411474425585E+00    0.19878E+00   -0.19148E-01  7064   0.739E-01    0.650E-01
RMM:   5    -0.351854546966E+00    0.59620E-01   -0.12905E-01  7568   0.443E-01    0.327E-01
RMM:   6    -0.337001354669E+00    0.14853E-01   -0.64443E-02  7590   0.147E-01    0.202E-01
RMM:   7    -0.326044872645E+00    0.10956E-01   -0.53897E-02  7025   0.127E-01    0.107E-01
RMM:   8    -0.322276687017E+00    0.37682E-02   -0.32871E-02  7347   0.688E-02    0.395E-02
RMM:   9    -0.320129128455E+00    0.21476E-02   -0.17314E-02  6902   0.326E-02    0.248E-02
RMM:  10    -0.319342629810E+00    0.78650E-03   -0.84504E-03  6892   0.212E-02    0.116E-02
RMM:  11    -0.319126988429E+00    0.21564E-03   -0.44864E-03  7039   0.167E-02    0.625E-03
RMM:  12    -0.319060062621E+00    0.66926E-04   -0.21806E-03  7128   0.922E-03    0.377E-03
RMM:  13    -0.319012438830E+00    0.47624E-04   -0.95238E-04  7262   0.564E-03    0.221E-03
RMM:  14    -0.318980278319E+00    0.32161E-04   -0.56436E-04  7651   0.282E-03    0.974E-04
RMM:  15    -0.318960937926E+00    0.19340E-04   -0.36866E-04  6907   0.416E-03    0.594E-04
RMM:  16    -0.318936921273E+00    0.24017E-04   -0.19213E-04  7961   0.811E-04    0.347E-04
RMM:  17    -0.318923788291E+00    0.13133E-04   -0.11961E-04  7952   0.744E-04    0.123E-04
RMM:  18    -0.318919649713E+00    0.41386E-05   -0.82524E-05  8101   0.181E-04    0.990E-05
RMM:  19    -0.318916506683E+00    0.31430E-05   -0.68911E-05  6872   0.463E-04    0.527E-05
RMM:  20    -0.318915201448E+00    0.13052E-05   -0.61027E-05  7384   0.790E-05    0.353E-05
RMM:  21    -0.318915407984E+00   -0.20654E-06   -0.60208E-05  6866   0.103E-04    0.166E-05
RMM:  22    -0.318914781052E+00    0.62693E-06   -0.52333E-05  6132   0.370E-05    0.113E-05
RMM:  23    -0.318914863365E+00   -0.82313E-07   -0.53264E-05  6346   0.360E-05    0.300E-06
