 vasp.5.4.1 24Jun15 (build Apr 13 2016 13:07:19) complex                        
  
 executed on           IFC91_ompi date 2019.09.13  22:25:05
 running on   28 total cores
 distrk:  each k-point on   28 cores,    1 groups
 distr:  one band on NCORES_PER_BAND=   1 cores,   28 groups


--------------------------------------------------------------------------------------------------------


 INCAR:
 POTCAR:    PAW_PBE W_sv_GW 23Mar2010             
 POTCAR:    PAW_PBE S_GW 19Mar2012                

 ----------------------------------------------------------------------------- 
|                                                                             |
|           W    W    AA    RRRRR   N    N  II  N    N   GGGG   !!!           |
|           W    W   A  A   R    R  NN   N  II  NN   N  G    G  !!!           |
|           W    W  A    A  R    R  N N  N  II  N N  N  G       !!!           |
|           W WW W  AAAAAA  RRRRR   N  N N  II  N  N N  G  GGG   !            |
|           WW  WW  A    A  R   R   N   NN  II  N   NN  G    G                |
|           W    W  A    A  R    R  N    N  II  N    N   GGGG   !!!           |
|                                                                             |
|      For optimal performance we recommend to set                            |
|        NCORE= 4 - approx SQRT( number of cores)                             |
|      NCORE specifies how many cores store one orbital (NPAR=cpu/NCORE).     |
|      This setting can  greatly improve the performance of VASP for DFT.     |
|      The default, NPAR=number of cores might be grossly inefficient         |
|      on modern multi-core architectures or massively parallel machines.     |
|      Do your own testing !!!!                                               |
|      Unfortunately you need to use the default for GW and RPA calculations. |
|      (for HF NCORE is supported but not extensively tested yet)             |
|                                                                             |
 ----------------------------------------------------------------------------- 

 POTCAR:    PAW_PBE W_sv_GW 23Mar2010             
   VRHFIN =W: 5p6s5d                                                            
   LEXCH  = PE                                                                  
   EATOM  =  1863.8917 eV,  136.9922 Ry                                         
                                                                                
   TITEL  = PAW_PBE W_sv_GW 23Mar2010                                           
   LULTRA =        F    use ultrasoft PP ?                                      
   IUNSCR =        1    unscreen: 0-lin 1-nonlin 2-no                           
   RPACOR =    1.500    partial core radius                                     
   POMASS =  183.850; ZVAL   =   14.000    mass and valenz                      
   RCORE  =    2.300    outmost cutoff radius                                   
   RWIGS  =    2.600; RWIGS  =    1.376    wigner-seitz radius (au A)           
   ENMAX  =  317.132; ENMIN  =  237.849 eV                                      
   RCLOC  =    1.609    cutoff for local pot                                    
   LCOR   =        T    correct aug charges                                     
   LPAW   =        T    paw PP                                                  
   EAUG   =  807.757                                                            
   DEXC   =    0.000                                                            
   RMAX   =    2.349    core radius for proj-oper                               
   RAUG   =    1.300    factor for augmentation sphere                          
   RDEP   =    2.382    radius for radial grids                                 
   RDEPT  =    1.832    core radius for aug-charge                              
                                                                                
   Atomic configuration                                                         
   14 entries                                                                   
     n  l   j            E        occ.                                          
     1  0  0.50    -69464.1497   2.0000                                         
     2  0  0.50    -11984.7400   2.0000                                         
     2  1  1.50    -10478.3405   6.0000                                         
     3  0  0.50     -2757.5605   2.0000                                         
     3  1  1.50     -2311.6706   6.0000                                         
     3  2  2.50     -1799.5973  10.0000                                         
     4  0  0.50      -566.1609   2.0000                                         
     4  1  1.50      -419.9482   6.0000                                         
     4  2  2.50      -234.8191  10.0000                                         
     4  3  3.50       -29.7363  14.0000                                         
     5  0  0.50       -75.5905   2.0000                                         
     5  1  1.50       -39.9756   6.0000                                         
     5  2  2.50        -2.4479   6.0000                                         
     5  3  2.50        -1.3606   0.0000                                         
   Description                                                                  
     l       E           TYP  RCUT    TYP  RCUT                                 
     0    -75.5905419     23  1.500                                             
     0    -76.9511245     23  1.500                                             
     0    108.8466080     23  1.500                                             
     1    -39.9756040     23  1.800                                             
     1     68.0291300     23  1.800                                             
     2     -2.4478587     23  2.150                                             
     2     -0.0030619     23  2.150                                             
     3      4.0817478     23  2.300                                             
  local pseudopotential read in
  partial core-charges read in
  partial kinetic energy density read in
  kinetic energy density of atom read in
  atomic valenz-charges read in
  non local Contribution for L=           0  read in
    real space projection operators read in
  non local Contribution for L=           0  read in
    real space projection operators read in
  non local Contribution for L=           0  read in
    real space projection operators read in
  non local Contribution for L=           1  read in
    real space projection operators read in
  non local Contribution for L=           1  read in
    real space projection operators read in
  non local Contribution for L=           2  read in
    real space projection operators read in
  non local Contribution for L=           2  read in
    real space projection operators read in
  non local Contribution for L=           3  read in
    real space projection operators read in
    PAW grid and wavefunctions read in
 
   number of l-projection  operators is LMAX  =           8
   number of lm-projection operators is LMMAX =          26
 
 POTCAR:    PAW_PBE S_GW 19Mar2012                
   VRHFIN =S : s2p4                                                             
   LEXCH  = PE                                                                  
   EATOM  =   276.8230 eV,   20.3459 Ry                                         
                                                                                
   TITEL  = PAW_PBE S_GW 19Mar2012                                              
   LULTRA =        F    use ultrasoft PP ?                                      
   IUNSCR =        1    unscreen: 0-lin 1-nonlin 2-no                           
   RPACOR =    1.400    partial core radius                                     
   POMASS =   32.066; ZVAL   =    6.000    mass and valenz                      
   RCORE  =    1.900    outmost cutoff radius                                   
   RWIGS  =    1.900; RWIGS  =    1.005    wigner-seitz radius (au A)           
   ENMAX  =  258.689; ENMIN  =  194.016 eV                                      
   ICORE  =        3    local potential                                         
   LCOR   =        T    correct aug charges                                     
   LPAW   =        T    paw PP                                                  
   EAUG   =  488.319                                                            
   DEXC   =    0.000                                                            
   RMAX   =    1.942    core radius for proj-oper                               
   RAUG   =    1.300    factor for augmentation sphere                          
   RDEP   =    1.954    radius for radial grids                                 
   RDEPT  =    1.900    core radius for aug-charge                              
                                                                                
   Atomic configuration                                                         
    7 entries                                                                   
     n  l   j            E        occ.                                          
     1  0  0.50     -2405.8406   2.0000                                         
     2  0  0.50      -211.7007   2.0000                                         
     2  1  1.50      -156.4958   6.0000                                         
     3  0  0.50       -17.2562   2.0000                                         
     3  1  0.50        -7.0085   4.0000                                         
     3  2  1.50        -8.1635   0.0000                                         
     4  3  2.50        -1.3606   0.0000                                         
   Description                                                                  
     l       E           TYP  RCUT    TYP  RCUT                                 
     0    -17.2561639     23  1.700                                             
     0     88.4378690     23  1.900                                             
     1     -7.0085399     23  1.900                                             
     1     88.4378690     23  1.900                                             
     2    -10.8846608     23  1.900                                             
     2     54.4233040     23  1.900                                             
     3     27.2116520     23  1.800                                             
  local pseudopotential read in
  partial core-charges read in
  partial kinetic energy density read in
  kinetic energy density of atom read in
  atomic valenz-charges read in
  non local Contribution for L=           0  read in
    real space projection operators read in
  non local Contribution for L=           0  read in
    real space projection operators read in
  non local Contribution for L=           1  read in
    real space projection operators read in
  non local Contribution for L=           1  read in
    real space projection operators read in
  non local Contribution for L=           2  read in
    real space projection operators read in
  non local Contribution for L=           2  read in
    real space projection operators read in
    PAW grid and wavefunctions read in
 
   number of l-projection  operators is LMAX  =           6
   number of lm-projection operators is LMMAX =          18
 
  PAW_PBE W_sv_GW 23Mar2010             :
 energy of atom  1       EATOM=-1863.8917
 kinetic energy error for atom=    0.2291 (will be added to EATOM!!)
  PAW_PBE S_GW 19Mar2012                :
 energy of atom  2       EATOM= -276.8230
 kinetic energy error for atom=    0.0074 (will be added to EATOM!!)
 
 
 POSCAR:  W  S                                   
  positions in cartesian coordinates
  No initial velocities read in
 exchange correlation table for  LEXCH =        8
   RHO(1)=    0.500       N(1)  =     2000
   RHO(2)=  100.500       N(2)  =     4000
 


--------------------------------------------------------------------------------------------------------


 ion  position               nearest neighbor table
   1  0.167  0.333  0.438-   4 2.42   4 2.42   4 2.42   3 2.42   3 2.42   3 2.42
   2  0.833  0.667  0.562-   5 2.42   5 2.42   5 2.42   6 2.42   6 2.42   6 2.42
   3  0.833  0.667  0.470-   1 2.42   1 2.42   1 2.42
   4  0.833  0.667  0.407-   1 2.42   1 2.42   1 2.42
   5  0.167  0.333  0.593-   2 2.42   2 2.42   2 2.42
   6  0.167  0.333  0.530-   2 2.42   2 2.42   2 2.42
 
  LATTYP: Found a hexagonal cell.
 ALAT       =     3.1859459497
 C/A-ratio  =    15.6939260082
  
  Lattice vectors:
  
 A1 = (   3.1859459497,   0.0000000000,   0.0000000000)
 A2 = (  -1.5929729748,   2.7591101275,   0.0000000000)
 A3 = (   0.0000000000,   0.0000000000,  50.0000000000)


Analysis of symmetry for initial positions (statically):
=====================================================================
 Subroutine PRICEL returns:
 Original cell was already a primitive cell.
 

 Routine SETGRP: Setting up the symmetry group for a 
 hexagonal supercell.


 Subroutine GETGRP returns: Found 12 space group operations
 (whereof  4 operations were pure point group operations)
 out of a pool of 24 trial point group operations.


The static configuration has the point symmetry C_2h.
 The point group associated with its full space group is D_3d.


Analysis of symmetry for dynamics (positions and initial velocities):
=====================================================================
 Subroutine PRICEL returns:
 Original cell was already a primitive cell.
 

 Routine SETGRP: Setting up the symmetry group for a 
 hexagonal supercell.


 Subroutine GETGRP returns: Found 12 space group operations
 (whereof  4 operations were pure point group operations)
 out of a pool of 24 trial point group operations.


The dynamic configuration has the point symmetry C_2h.
 The point group associated with its full space group is D_3d.


 Subroutine INISYM returns: Found 12 space group operations
 (whereof  4 operations are pure point group operations),
 and found     1 'primitive' translations

 
 
 KPOINTS: KPOINTS created by Atomic Simulation Env

Automatic generation of k-mesh.
Space group operators:
 irot       det(A)        alpha          n_x          n_y          n_z        tau_x        tau_y        tau_z
    1     1.000000     0.000000     1.000000     0.000000     0.000000     0.000000     0.000000     0.000000
    2    -1.000000     0.000000     1.000000     0.000000     0.000000     0.000000     0.000000     0.000000
    3     1.000000   180.000000     1.000000     0.000000     0.000000     0.000000     0.000000     0.000000
    4    -1.000000   180.000000     1.000000     0.000000     0.000000     0.000000     0.000000     0.000000
    5     1.000000   120.000000     0.000000     0.000000    -1.000000     0.500000     0.500000     0.000000
    6    -1.000000   120.000000     0.000000     0.000000    -1.000000     0.500000     0.500000     0.000000
    7     1.000000   120.000000     0.000000     0.000000     1.000000     0.000000     0.500000     0.000000
    8    -1.000000   120.000000     0.000000     0.000000     1.000000     0.000000     0.500000     0.000000
    9     1.000000   180.000000     0.500000    -0.866025     0.000000     0.000000     0.500000     0.000000
   10    -1.000000   180.000000     0.500000    -0.866025     0.000000     0.000000     0.500000     0.000000
   11     1.000000   180.000000    -0.500000    -0.866025     0.000000     0.500000     0.500000     0.000000
   12    -1.000000   180.000000    -0.500000    -0.866025     0.000000     0.500000     0.500000     0.000000
 
 Subroutine IBZKPT returns following result:
 ===========================================
 
 Found     37 irreducible k-points:
 
 Following reciprocal coordinates:
            Coordinates               Weight
  0.000000  0.000000  0.000000      1.000000
  0.055556  0.000000  0.000000      6.000000
  0.111111  0.000000  0.000000      6.000000
  0.166667  0.000000  0.000000      6.000000
  0.222222  0.000000  0.000000      6.000000
  0.277778  0.000000  0.000000      6.000000
  0.333333  0.000000  0.000000      6.000000
  0.388889  0.000000  0.000000      6.000000
  0.444444  0.000000  0.000000      6.000000
  0.500000  0.000000  0.000000      3.000000
  0.055556  0.055556  0.000000      6.000000
  0.111111  0.055556  0.000000     12.000000
  0.166667  0.055556  0.000000     12.000000
  0.222222  0.055556  0.000000     12.000000
  0.277778  0.055556  0.000000     12.000000
  0.333333  0.055556  0.000000     12.000000
  0.388889  0.055556  0.000000     12.000000
  0.444444  0.055556  0.000000     12.000000
  0.111111  0.111111  0.000000      6.000000
  0.166667  0.111111  0.000000     12.000000
  0.222222  0.111111  0.000000     12.000000
  0.277778  0.111111  0.000000     12.000000
  0.333333  0.111111  0.000000     12.000000
  0.388889  0.111111  0.000000     12.000000
  0.444444  0.111111  0.000000      6.000000
  0.166667  0.166667  0.000000      6.000000
  0.222222  0.166667  0.000000     12.000000
  0.277778  0.166667  0.000000     12.000000
  0.333333  0.166667  0.000000     12.000000
  0.388889  0.166667  0.000000     12.000000
  0.222222  0.222222  0.000000      6.000000
  0.277778  0.222222  0.000000     12.000000
  0.333333  0.222222  0.000000     12.000000
  0.388889  0.222222  0.000000      6.000000
  0.277778  0.277778  0.000000      6.000000
  0.333333  0.277778  0.000000     12.000000
  0.333333  0.333333  0.000000      2.000000
 
 Following cartesian coordinates:
            Coordinates               Weight
  0.000000  0.000000  0.000000      1.000000
  0.017438  0.010068  0.000000      6.000000
  0.034875  0.020135  0.000000      6.000000
  0.052313  0.030203  0.000000      6.000000
  0.069751  0.040271  0.000000      6.000000
  0.087188  0.050338  0.000000      6.000000
  0.104626  0.060406  0.000000      6.000000
  0.122064  0.070474  0.000000      6.000000
  0.139502  0.080541  0.000000      6.000000
  0.156939  0.090609  0.000000      3.000000
  0.017438  0.030203  0.000000      6.000000
  0.034875  0.040271  0.000000     12.000000
  0.052313  0.050338  0.000000     12.000000
  0.069751  0.060406  0.000000     12.000000
  0.087188  0.070474  0.000000     12.000000
  0.104626  0.080541  0.000000     12.000000
  0.122064  0.090609  0.000000     12.000000
  0.139502  0.100677  0.000000     12.000000
  0.034875  0.060406  0.000000      6.000000
  0.052313  0.070474  0.000000     12.000000
  0.069751  0.080541  0.000000     12.000000
  0.087188  0.090609  0.000000     12.000000
  0.104626  0.100677  0.000000     12.000000
  0.122064  0.110744  0.000000     12.000000
  0.139502  0.120812  0.000000      6.000000
  0.052313  0.090609  0.000000      6.000000
  0.069751  0.100677  0.000000     12.000000
  0.087188  0.110744  0.000000     12.000000
  0.104626  0.120812  0.000000     12.000000
  0.122064  0.130880  0.000000     12.000000
  0.069751  0.120812  0.000000      6.000000
  0.087188  0.130880  0.000000     12.000000
  0.104626  0.140947  0.000000     12.000000
  0.122064  0.151015  0.000000      6.000000
  0.087188  0.151015  0.000000      6.000000
  0.104626  0.161083  0.000000     12.000000
  0.104626  0.181218  0.000000      2.000000
 
 TETIRR: Found    169 inequivalent tetrahedra from     1944
 
 Subroutine IBZKPT_HF returns following result:
 ==============================================
 
 Found    324 k-points in 1st BZ
 the following    324 k-points will be used (e.g. in the exchange kernel)
 Following reciprocal coordinates:   # in IRBZ
  0.000000  0.000000  0.000000    0.00308642   1 t-inv F
  0.055556  0.000000  0.000000    0.00308642   2 t-inv F
  0.111111  0.000000  0.000000    0.00308642   3 t-inv F
  0.166667  0.000000  0.000000    0.00308642   4 t-inv F
  0.222222  0.000000  0.000000    0.00308642   5 t-inv F
  0.277778  0.000000  0.000000    0.00308642   6 t-inv F
  0.333333  0.000000  0.000000    0.00308642   7 t-inv F
  0.388889  0.000000  0.000000    0.00308642   8 t-inv F
  0.444444  0.000000  0.000000    0.00308642   9 t-inv F
  0.500000  0.000000  0.000000    0.00308642  10 t-inv F
  0.055556  0.055556  0.000000    0.00308642  11 t-inv F
  0.111111  0.055556  0.000000    0.00308642  12 t-inv F
  0.166667  0.055556  0.000000    0.00308642  13 t-inv F
  0.222222  0.055556  0.000000    0.00308642  14 t-inv F
  0.277778  0.055556  0.000000    0.00308642  15 t-inv F
  0.333333  0.055556  0.000000    0.00308642  16 t-inv F
  0.388889  0.055556  0.000000    0.00308642  17 t-inv F
  0.444444  0.055556  0.000000    0.00308642  18 t-inv F
  0.111111  0.111111  0.000000    0.00308642  19 t-inv F
  0.166667  0.111111  0.000000    0.00308642  20 t-inv F
  0.222222  0.111111  0.000000    0.00308642  21 t-inv F
  0.277778  0.111111  0.000000    0.00308642  22 t-inv F
  0.333333  0.111111  0.000000    0.00308642  23 t-inv F
  0.388889  0.111111  0.000000    0.00308642  24 t-inv F
  0.444444  0.111111  0.000000    0.00308642  25 t-inv F
  0.166667  0.166667  0.000000    0.00308642  26 t-inv F
  0.222222  0.166667  0.000000    0.00308642  27 t-inv F
  0.277778  0.166667  0.000000    0.00308642  28 t-inv F
  0.333333  0.166667  0.000000    0.00308642  29 t-inv F
  0.388889  0.166667  0.000000    0.00308642  30 t-inv F
  0.222222  0.222222  0.000000    0.00308642  31 t-inv F
  0.277778  0.222222  0.000000    0.00308642  32 t-inv F
  0.333333  0.222222  0.000000    0.00308642  33 t-inv F
  0.388889  0.222222  0.000000    0.00308642  34 t-inv F
  0.277778  0.277778  0.000000    0.00308642  35 t-inv F
  0.333333  0.277778  0.000000    0.00308642  36 t-inv F
  0.333333  0.333333  0.000000    0.00308642  37 t-inv F
 -0.055556 -0.000000 -0.000000    0.00308642   2 t-inv F
  0.055556 -0.055556 -0.000000    0.00308642   2 t-inv F
 -0.055556  0.055556  0.000000    0.00308642   2 t-inv F
  0.000000 -0.055556  0.000000    0.00308642   2 t-inv F
 -0.000000  0.055556 -0.000000    0.00308642   2 t-inv F
 -0.111111 -0.000000 -0.000000    0.00308642   3 t-inv F
  0.111111 -0.111111 -0.000000    0.00308642   3 t-inv F
 -0.111111  0.111111  0.000000    0.00308642   3 t-inv F
  0.000000 -0.111111  0.000000    0.00308642   3 t-inv F
 -0.000000  0.111111 -0.000000    0.00308642   3 t-inv F
 -0.166667 -0.000000 -0.000000    0.00308642   4 t-inv F
  0.166667 -0.166667 -0.000000    0.00308642   4 t-inv F
 -0.166667  0.166667  0.000000    0.00308642   4 t-inv F
  0.000000 -0.166667  0.000000    0.00308642   4 t-inv F
 -0.000000  0.166667 -0.000000    0.00308642   4 t-inv F
 -0.222222 -0.000000 -0.000000    0.00308642   5 t-inv F
  0.222222 -0.222222 -0.000000    0.00308642   5 t-inv F
 -0.222222  0.222222  0.000000    0.00308642   5 t-inv F
  0.000000 -0.222222  0.000000    0.00308642   5 t-inv F
 -0.000000  0.222222 -0.000000    0.00308642   5 t-inv F
 -0.277778 -0.000000 -0.000000    0.00308642   6 t-inv F
  0.277778 -0.277778 -0.000000    0.00308642   6 t-inv F
 -0.277778  0.277778  0.000000    0.00308642   6 t-inv F
  0.000000 -0.277778  0.000000    0.00308642   6 t-inv F
 -0.000000  0.277778 -0.000000    0.00308642   6 t-inv F
 -0.333333 -0.000000 -0.000000    0.00308642   7 t-inv F
  0.333333 -0.333333 -0.000000    0.00308642   7 t-inv F
 -0.333333  0.333333  0.000000    0.00308642   7 t-inv F
  0.000000 -0.333333  0.000000    0.00308642   7 t-inv F
 -0.000000  0.333333 -0.000000    0.00308642   7 t-inv F
 -0.388889 -0.000000 -0.000000    0.00308642   8 t-inv F
  0.388889 -0.388889 -0.000000    0.00308642   8 t-inv F
 -0.388889  0.388889  0.000000    0.00308642   8 t-inv F
  0.000000 -0.388889  0.000000    0.00308642   8 t-inv F
 -0.000000  0.388889 -0.000000    0.00308642   8 t-inv F
 -0.444444 -0.000000 -0.000000    0.00308642   9 t-inv F
  0.444444 -0.444444 -0.000000    0.00308642   9 t-inv F
 -0.444444  0.444444  0.000000    0.00308642   9 t-inv F
  0.000000 -0.444444  0.000000    0.00308642   9 t-inv F
 -0.000000  0.444444 -0.000000    0.00308642   9 t-inv F
  0.500000 -0.500000 -0.000000    0.00308642  10 t-inv F
  0.000000 -0.500000  0.000000    0.00308642  10 t-inv F
 -0.055556 -0.055556 -0.000000    0.00308642  11 t-inv F
  0.055556 -0.111111 -0.000000    0.00308642  11 t-inv F
 -0.055556  0.111111  0.000000    0.00308642  11 t-inv F
 -0.111111  0.055556  0.000000    0.00308642  11 t-inv F
  0.111111 -0.055556 -0.000000    0.00308642  11 t-inv F
 -0.111111 -0.055556 -0.000000    0.00308642  12 t-inv F
  0.111111 -0.166667 -0.000000    0.00308642  12 t-inv F
 -0.111111  0.166667  0.000000    0.00308642  12 t-inv F
 -0.166667  0.111111  0.000000    0.00308642  12 t-inv F
  0.166667 -0.111111 -0.000000    0.00308642  12 t-inv F
  0.055556 -0.166667  0.000000    0.00308642  12 t-inv F
 -0.055556  0.166667 -0.000000    0.00308642  12 t-inv F
 -0.166667  0.055556 -0.000000    0.00308642  12 t-inv F
  0.166667 -0.055556  0.000000    0.00308642  12 t-inv F
  0.055556  0.111111 -0.000000    0.00308642  12 t-inv F
 -0.055556 -0.111111  0.000000    0.00308642  12 t-inv F
 -0.166667 -0.055556 -0.000000    0.00308642  13 t-inv F
  0.166667 -0.222222 -0.000000    0.00308642  13 t-inv F
 -0.166667  0.222222  0.000000    0.00308642  13 t-inv F
 -0.222222  0.166667  0.000000    0.00308642  13 t-inv F
  0.222222 -0.166667 -0.000000    0.00308642  13 t-inv F
  0.055556 -0.222222  0.000000    0.00308642  13 t-inv F
 -0.055556  0.222222 -0.000000    0.00308642  13 t-inv F
 -0.222222  0.055556 -0.000000    0.00308642  13 t-inv F
  0.222222 -0.055556  0.000000    0.00308642  13 t-inv F
  0.055556  0.166667 -0.000000    0.00308642  13 t-inv F
 -0.055556 -0.166667  0.000000    0.00308642  13 t-inv F
 -0.222222 -0.055556 -0.000000    0.00308642  14 t-inv F
  0.222222 -0.277778 -0.000000    0.00308642  14 t-inv F
 -0.222222  0.277778  0.000000    0.00308642  14 t-inv F
 -0.277778  0.222222  0.000000    0.00308642  14 t-inv F
  0.277778 -0.222222 -0.000000    0.00308642  14 t-inv F
  0.055556 -0.277778  0.000000    0.00308642  14 t-inv F
 -0.055556  0.277778 -0.000000    0.00308642  14 t-inv F
 -0.277778  0.055556 -0.000000    0.00308642  14 t-inv F
  0.277778 -0.055556  0.000000    0.00308642  14 t-inv F
  0.055556  0.222222 -0.000000    0.00308642  14 t-inv F
 -0.055556 -0.222222  0.000000    0.00308642  14 t-inv F
 -0.277778 -0.055556 -0.000000    0.00308642  15 t-inv F
  0.277778 -0.333333 -0.000000    0.00308642  15 t-inv F
 -0.277778  0.333333  0.000000    0.00308642  15 t-inv F
 -0.333333  0.277778  0.000000    0.00308642  15 t-inv F
  0.333333 -0.277778 -0.000000    0.00308642  15 t-inv F
  0.055556 -0.333333  0.000000    0.00308642  15 t-inv F
 -0.055556  0.333333 -0.000000    0.00308642  15 t-inv F
 -0.333333  0.055556 -0.000000    0.00308642  15 t-inv F
  0.333333 -0.055556  0.000000    0.00308642  15 t-inv F
  0.055556  0.277778 -0.000000    0.00308642  15 t-inv F
 -0.055556 -0.277778  0.000000    0.00308642  15 t-inv F
 -0.333333 -0.055556 -0.000000    0.00308642  16 t-inv F
  0.333333 -0.388889 -0.000000    0.00308642  16 t-inv F
 -0.333333  0.388889  0.000000    0.00308642  16 t-inv F
 -0.388889  0.333333  0.000000    0.00308642  16 t-inv F
  0.388889 -0.333333 -0.000000    0.00308642  16 t-inv F
  0.055556 -0.388889  0.000000    0.00308642  16 t-inv F
 -0.055556  0.388889 -0.000000    0.00308642  16 t-inv F
 -0.388889  0.055556 -0.000000    0.00308642  16 t-inv F
  0.388889 -0.055556  0.000000    0.00308642  16 t-inv F
  0.055556  0.333333 -0.000000    0.00308642  16 t-inv F
 -0.055556 -0.333333  0.000000    0.00308642  16 t-inv F
 -0.388889 -0.055556 -0.000000    0.00308642  17 t-inv F
  0.388889 -0.444444 -0.000000    0.00308642  17 t-inv F
 -0.388889  0.444444  0.000000    0.00308642  17 t-inv F
 -0.444444  0.388889  0.000000    0.00308642  17 t-inv F
  0.444444 -0.388889 -0.000000    0.00308642  17 t-inv F
  0.055556 -0.444444  0.000000    0.00308642  17 t-inv F
 -0.055556  0.444444 -0.000000    0.00308642  17 t-inv F
 -0.444444  0.055556 -0.000000    0.00308642  17 t-inv F
  0.444444 -0.055556  0.000000    0.00308642  17 t-inv F
  0.055556  0.388889 -0.000000    0.00308642  17 t-inv F
 -0.055556 -0.388889  0.000000    0.00308642  17 t-inv F
 -0.444444 -0.055556 -0.000000    0.00308642  18 t-inv F
  0.444444 -0.500000 -0.000000    0.00308642  18 t-inv F
 -0.444444  0.500000  0.000000    0.00308642  18 t-inv F
 -0.500000  0.444444  0.000000    0.00308642  18 t-inv F
  0.500000 -0.444444 -0.000000    0.00308642  18 t-inv F
  0.055556 -0.500000  0.000000    0.00308642  18 t-inv F
 -0.055556  0.500000 -0.000000    0.00308642  18 t-inv F
 -0.500000  0.055556 -0.000000    0.00308642  18 t-inv F
  0.500000 -0.055556  0.000000    0.00308642  18 t-inv F
  0.055556  0.444444 -0.000000    0.00308642  18 t-inv F
 -0.055556 -0.444444  0.000000    0.00308642  18 t-inv F
 -0.111111 -0.111111 -0.000000    0.00308642  19 t-inv F
  0.111111 -0.222222 -0.000000    0.00308642  19 t-inv F
 -0.111111  0.222222  0.000000    0.00308642  19 t-inv F
 -0.222222  0.111111  0.000000    0.00308642  19 t-inv F
  0.222222 -0.111111 -0.000000    0.00308642  19 t-inv F
 -0.166667 -0.111111 -0.000000    0.00308642  20 t-inv F
  0.166667 -0.277778 -0.000000    0.00308642  20 t-inv F
 -0.166667  0.277778  0.000000    0.00308642  20 t-inv F
 -0.277778  0.166667  0.000000    0.00308642  20 t-inv F
  0.277778 -0.166667 -0.000000    0.00308642  20 t-inv F
  0.111111 -0.277778  0.000000    0.00308642  20 t-inv F
 -0.111111  0.277778 -0.000000    0.00308642  20 t-inv F
 -0.277778  0.111111 -0.000000    0.00308642  20 t-inv F
  0.277778 -0.111111  0.000000    0.00308642  20 t-inv F
  0.111111  0.166667 -0.000000    0.00308642  20 t-inv F
 -0.111111 -0.166667  0.000000    0.00308642  20 t-inv F
 -0.222222 -0.111111 -0.000000    0.00308642  21 t-inv F
  0.222222 -0.333333 -0.000000    0.00308642  21 t-inv F
 -0.222222  0.333333  0.000000    0.00308642  21 t-inv F
 -0.333333  0.222222  0.000000    0.00308642  21 t-inv F
  0.333333 -0.222222 -0.000000    0.00308642  21 t-inv F
  0.111111 -0.333333  0.000000    0.00308642  21 t-inv F
 -0.111111  0.333333 -0.000000    0.00308642  21 t-inv F
 -0.333333  0.111111 -0.000000    0.00308642  21 t-inv F
  0.333333 -0.111111  0.000000    0.00308642  21 t-inv F
  0.111111  0.222222 -0.000000    0.00308642  21 t-inv F
 -0.111111 -0.222222  0.000000    0.00308642  21 t-inv F
 -0.277778 -0.111111 -0.000000    0.00308642  22 t-inv F
  0.277778 -0.388889 -0.000000    0.00308642  22 t-inv F
 -0.277778  0.388889  0.000000    0.00308642  22 t-inv F
 -0.388889  0.277778  0.000000    0.00308642  22 t-inv F
  0.388889 -0.277778 -0.000000    0.00308642  22 t-inv F
  0.111111 -0.388889  0.000000    0.00308642  22 t-inv F
 -0.111111  0.388889 -0.000000    0.00308642  22 t-inv F
 -0.388889  0.111111 -0.000000    0.00308642  22 t-inv F
  0.388889 -0.111111  0.000000    0.00308642  22 t-inv F
  0.111111  0.277778 -0.000000    0.00308642  22 t-inv F
 -0.111111 -0.277778  0.000000    0.00308642  22 t-inv F
 -0.333333 -0.111111 -0.000000    0.00308642  23 t-inv F
  0.333333 -0.444444 -0.000000    0.00308642  23 t-inv F
 -0.333333  0.444444  0.000000    0.00308642  23 t-inv F
 -0.444444  0.333333  0.000000    0.00308642  23 t-inv F
  0.444444 -0.333333 -0.000000    0.00308642  23 t-inv F
  0.111111 -0.444444  0.000000    0.00308642  23 t-inv F
 -0.111111  0.444444 -0.000000    0.00308642  23 t-inv F
 -0.444444  0.111111 -0.000000    0.00308642  23 t-inv F
  0.444444 -0.111111  0.000000    0.00308642  23 t-inv F
  0.111111  0.333333 -0.000000    0.00308642  23 t-inv F
 -0.111111 -0.333333  0.000000    0.00308642  23 t-inv F
 -0.388889 -0.111111 -0.000000    0.00308642  24 t-inv F
  0.388889 -0.500000 -0.000000    0.00308642  24 t-inv F
 -0.388889  0.500000  0.000000    0.00308642  24 t-inv F
 -0.500000  0.388889  0.000000    0.00308642  24 t-inv F
  0.500000 -0.388889 -0.000000    0.00308642  24 t-inv F
  0.111111 -0.500000  0.000000    0.00308642  24 t-inv F
 -0.111111  0.500000 -0.000000    0.00308642  24 t-inv F
 -0.500000  0.111111 -0.000000    0.00308642  24 t-inv F
  0.500000 -0.111111  0.000000    0.00308642  24 t-inv F
  0.111111  0.388889 -0.000000    0.00308642  24 t-inv F
 -0.111111 -0.388889  0.000000    0.00308642  24 t-inv F
 -0.444444 -0.111111 -0.000000    0.00308642  25 t-inv F
  0.444444 -0.555556 -0.000000    0.00308642  25 t-inv F
 -0.444444  0.555556  0.000000    0.00308642  25 t-inv F
  0.111111 -0.555556  0.000000    0.00308642  25 t-inv F
 -0.111111  0.555556 -0.000000    0.00308642  25 t-inv F
 -0.166667 -0.166667 -0.000000    0.00308642  26 t-inv F
  0.166667 -0.333333 -0.000000    0.00308642  26 t-inv F
 -0.166667  0.333333  0.000000    0.00308642  26 t-inv F
 -0.333333  0.166667  0.000000    0.00308642  26 t-inv F
  0.333333 -0.166667 -0.000000    0.00308642  26 t-inv F
 -0.222222 -0.166667 -0.000000    0.00308642  27 t-inv F
  0.222222 -0.388889 -0.000000    0.00308642  27 t-inv F
 -0.222222  0.388889  0.000000    0.00308642  27 t-inv F
 -0.388889  0.222222  0.000000    0.00308642  27 t-inv F
  0.388889 -0.222222 -0.000000    0.00308642  27 t-inv F
  0.166667 -0.388889  0.000000    0.00308642  27 t-inv F
 -0.166667  0.388889 -0.000000    0.00308642  27 t-inv F
 -0.388889  0.166667 -0.000000    0.00308642  27 t-inv F
  0.388889 -0.166667  0.000000    0.00308642  27 t-inv F
  0.166667  0.222222 -0.000000    0.00308642  27 t-inv F
 -0.166667 -0.222222  0.000000    0.00308642  27 t-inv F
 -0.277778 -0.166667 -0.000000    0.00308642  28 t-inv F
  0.277778 -0.444444 -0.000000    0.00308642  28 t-inv F
 -0.277778  0.444444  0.000000    0.00308642  28 t-inv F
 -0.444444  0.277778  0.000000    0.00308642  28 t-inv F
  0.444444 -0.277778 -0.000000    0.00308642  28 t-inv F
  0.166667 -0.444444  0.000000    0.00308642  28 t-inv F
 -0.166667  0.444444 -0.000000    0.00308642  28 t-inv F
 -0.444444  0.166667 -0.000000    0.00308642  28 t-inv F
  0.444444 -0.166667  0.000000    0.00308642  28 t-inv F
  0.166667  0.277778 -0.000000    0.00308642  28 t-inv F
 -0.166667 -0.277778  0.000000    0.00308642  28 t-inv F
 -0.333333 -0.166667 -0.000000    0.00308642  29 t-inv F
  0.333333 -0.500000 -0.000000    0.00308642  29 t-inv F
 -0.333333  0.500000  0.000000    0.00308642  29 t-inv F
 -0.500000  0.333333  0.000000    0.00308642  29 t-inv F
  0.500000 -0.333333 -0.000000    0.00308642  29 t-inv F
  0.166667 -0.500000  0.000000    0.00308642  29 t-inv F
 -0.166667  0.500000 -0.000000    0.00308642  29 t-inv F
 -0.500000  0.166667 -0.000000    0.00308642  29 t-inv F
  0.500000 -0.166667  0.000000    0.00308642  29 t-inv F
  0.166667  0.333333 -0.000000    0.00308642  29 t-inv F
 -0.166667 -0.333333  0.000000    0.00308642  29 t-inv F
 -0.388889 -0.166667 -0.000000    0.00308642  30 t-inv F
  0.388889 -0.555556 -0.000000    0.00308642  30 t-inv F
 -0.388889  0.555556  0.000000    0.00308642  30 t-inv F
 -0.555556  0.388889  0.000000    0.00308642  30 t-inv F
  0.555556 -0.388889 -0.000000    0.00308642  30 t-inv F
  0.166667 -0.555556  0.000000    0.00308642  30 t-inv F
 -0.166667  0.555556 -0.000000    0.00308642  30 t-inv F
 -0.555556  0.166667 -0.000000    0.00308642  30 t-inv F
  0.555556 -0.166667  0.000000    0.00308642  30 t-inv F
  0.166667  0.388889 -0.000000    0.00308642  30 t-inv F
 -0.166667 -0.388889  0.000000    0.00308642  30 t-inv F
 -0.222222 -0.222222 -0.000000    0.00308642  31 t-inv F
  0.222222 -0.444444 -0.000000    0.00308642  31 t-inv F
 -0.222222  0.444444  0.000000    0.00308642  31 t-inv F
 -0.444444  0.222222  0.000000    0.00308642  31 t-inv F
  0.444444 -0.222222 -0.000000    0.00308642  31 t-inv F
 -0.277778 -0.222222 -0.000000    0.00308642  32 t-inv F
  0.277778 -0.500000 -0.000000    0.00308642  32 t-inv F
 -0.277778  0.500000  0.000000    0.00308642  32 t-inv F
 -0.500000  0.277778  0.000000    0.00308642  32 t-inv F
  0.500000 -0.277778 -0.000000    0.00308642  32 t-inv F
  0.222222 -0.500000  0.000000    0.00308642  32 t-inv F
 -0.222222  0.500000 -0.000000    0.00308642  32 t-inv F
 -0.500000  0.222222 -0.000000    0.00308642  32 t-inv F
  0.500000 -0.222222  0.000000    0.00308642  32 t-inv F
  0.222222  0.277778 -0.000000    0.00308642  32 t-inv F
 -0.222222 -0.277778  0.000000    0.00308642  32 t-inv F
 -0.333333 -0.222222 -0.000000    0.00308642  33 t-inv F
  0.333333 -0.555556 -0.000000    0.00308642  33 t-inv F
 -0.333333  0.555556  0.000000    0.00308642  33 t-inv F
 -0.555556  0.333333  0.000000    0.00308642  33 t-inv F
  0.555556 -0.333333 -0.000000    0.00308642  33 t-inv F
  0.222222 -0.555556  0.000000    0.00308642  33 t-inv F
 -0.222222  0.555556 -0.000000    0.00308642  33 t-inv F
 -0.555556  0.222222 -0.000000    0.00308642  33 t-inv F
  0.555556 -0.222222  0.000000    0.00308642  33 t-inv F
  0.222222  0.333333 -0.000000    0.00308642  33 t-inv F
 -0.222222 -0.333333  0.000000    0.00308642  33 t-inv F
 -0.388889 -0.222222 -0.000000    0.00308642  34 t-inv F
  0.388889 -0.611111 -0.000000    0.00308642  34 t-inv F
 -0.388889  0.611111  0.000000    0.00308642  34 t-inv F
  0.222222 -0.611111  0.000000    0.00308642  34 t-inv F
 -0.222222  0.611111 -0.000000    0.00308642  34 t-inv F
 -0.277778 -0.277778 -0.000000    0.00308642  35 t-inv F
  0.277778 -0.555556 -0.000000    0.00308642  35 t-inv F
 -0.277778  0.555556  0.000000    0.00308642  35 t-inv F
 -0.555556  0.277778  0.000000    0.00308642  35 t-inv F
  0.555556 -0.277778 -0.000000    0.00308642  35 t-inv F
 -0.333333 -0.277778 -0.000000    0.00308642  36 t-inv F
  0.333333 -0.611111 -0.000000    0.00308642  36 t-inv F
 -0.333333  0.611111  0.000000    0.00308642  36 t-inv F
 -0.611111  0.333333  0.000000    0.00308642  36 t-inv F
  0.611111 -0.333333 -0.000000    0.00308642  36 t-inv F
  0.277778 -0.611111  0.000000    0.00308642  36 t-inv F
 -0.277778  0.611111 -0.000000    0.00308642  36 t-inv F
 -0.611111  0.277778 -0.000000    0.00308642  36 t-inv F
  0.611111 -0.277778  0.000000    0.00308642  36 t-inv F
  0.277778  0.333333 -0.000000    0.00308642  36 t-inv F
 -0.277778 -0.333333  0.000000    0.00308642  36 t-inv F
 -0.333333 -0.333333 -0.000000    0.00308642  37 t-inv F


--------------------------------------------------------------------------------------------------------




 Dimension of arrays:
   k-points           NKPTS =     37   k-points in BZ     NKDIM =     37   number of bands    NBANDS=     56
   number of dos      NEDOS =    301   number of ions     NIONS =      6
   non local maximal  LDIM  =      8   non local SUM 2l+1 LMDIM =     26
   total plane-waves  NPLWV = 117600
   max r-space proj   IRMAX =      1   max aug-charges    IRDMAX=  10412
   dimension x,y,z NGX =    20 NGY =   20 NGZ =  294
   dimension x,y,z NGXF=    40 NGYF=   40 NGZF=  588
   support grid    NGXF=    40 NGYF=   40 NGZF=  588
   ions per type =               2   4
 NGX,Y,Z   is equivalent  to a cutoff of  10.44, 10.44,  9.78 a.u.
 NGXF,Y,Z  is equivalent  to a cutoff of  20.87, 20.87, 19.55 a.u.


 I would recommend the setting:
   dimension x,y,z NGX =    19 NGY =   19 NGZ =  290
 SYSTEM =  unknown system                          
 POSCAR =   W  S                                   

 Startparameter for this run:
   NWRITE =      2    write-flag & timer
   PREC   = accura    normal or accurate (medium, high low for compatibility)
   ISTART =      0    job   : 0-new  1-cont  2-samecut
   ICHARG =      2    charge: 1-file 2-atom 10-const
   ISPIN  =      1    spin polarized calculation?
   LNONCOLLINEAR =      F non collinear calculations
   LSORBIT =      F    spin-orbit coupling
   INIWAV =      1    electr: 0-lowe 1-rand  2-diag
   LASPH  =      F    aspherical Exc in radial PAW
   METAGGA=      F    non-selfconsistent MetaGGA calc.

 Electronic Relaxation 1
   ENCUT  =  317.1 eV  23.31 Ry    4.83 a.u.   4.63  4.63 72.60*2*pi/ulx,y,z
   ENINI  =  317.1     initial cutoff
   ENAUG  =  807.8 eV  augmentation charge cutoff
   NELM   =     60;   NELMIN=  5; NELMDL= -5     # of ELM steps 
   EDIFF  = 0.1E-07   stopping-criterion for ELM
   LREAL  =      F    real-space projection
   NLSPLINE    = F    spline interpolate recip. space projectors
   LCOMPAT=      F    compatible to vasp.4.4
   GGA_COMPAT  = T    GGA compatible to vasp.4.4-vasp.4.6
   LMAXPAW     = -100 max onsite density
   LMAXMIX     =    2 max onsite mixed and CHGCAR
   VOSKOWN=      0    Vosko Wilk Nusair interpolation
   ROPT   =    0.00000   0.00000
 Ionic relaxation
   EDIFFG = 0.1E-06   stopping-criterion for IOM
   NSW    =      0    number of steps for IOM
   NBLOCK =      1;   KBLOCK =      1    inner block; outer block 
   IBRION =     -1    ionic relax: 0-MD 1-quasi-New 2-CG
   NFREE  =      0    steps in history (QN), initial steepest desc. (CG)
   ISIF   =      2    stress and relaxation
   IWAVPR =     10    prediction:  0-non 1-charg 2-wave 3-comb
   ISYM   =      2    0-nonsym 1-usesym 2-fastsym
   LCORR  =      T    Harris-Foulkes like correction to forces

   POTIM  = 0.5000    time-step for ionic-motion
   TEIN   =    0.0    initial temperature
   TEBEG  =    0.0;   TEEND  =   0.0 temperature during run
   SMASS  =  -3.00    Nose mass-parameter (am)
   estimated Nose-frequenzy (Omega)   =  0.10E-29 period in steps =****** mass=  -0.232E-27a.u.
   SCALEE = 1.0000    scale energy and forces
   NPACO  =    256;   APACO  = 16.0  distance and # of slots for P.C.
   PSTRESS=    0.0 pullay stress

  Mass of Ions in am
   POMASS = 183.85 32.07
  Ionic Valenz
   ZVAL   =  14.00  6.00
  Atomic Wigner-Seitz radii
   RWIGS  =  -1.00 -1.00
  virtual crystal weights 
   VCA    =   1.00  1.00
   NELECT =      52.0000    total number of electrons
   NUPDOWN=      -1.0000    fix difference up-down

 DOS related values:
   EMIN   =  10.00;   EMAX   =-10.00  energy-range for DOS
   EFERMI =   0.00
   ISMEAR =    -5;   SIGMA  =   0.01  broadening in eV -4-tet -1-fermi 0-gaus

 Electronic relaxation 2 (details)
   IALGO  =     38    algorithm
   LDIAG  =      T    sub-space diagonalisation (order eigenvalues)
   LSUBROT=      F    optimize rotation matrix (better conditioning)
   TURBO    =      0    0=normal 1=particle mesh
   IRESTART =      0    0=no restart 2=restart with 2 vectors
   NREBOOT  =      0    no. of reboots
   NMIN     =      0    reboot dimension
   EREF     =   0.00    reference energy to select bands
   IMIX   =      4    mixing-type and parameters
     AMIX     =   0.40;   BMIX     =  1.00
     AMIX_MAG =   1.60;   BMIX_MAG =  1.00
     AMIN     =   0.10
     WC   =   100.;   INIMIX=   1;  MIXPRE=   1;  MAXMIX= -45

 Intra band minimization:
   WEIMIN = 0.0000     energy-eigenvalue tresh-hold
   EBREAK =  0.45E-10  absolut break condition
   DEPER  =   0.30     relativ break condition  

   TIME   =   0.40     timestep for ELM

  volume/ion in A,a.u.               =      73.25       494.34
  Fermi-wavevector in a.u.,A,eV,Ry     =   0.803681  1.518736  8.788036  0.645902
  Thomas-Fermi vector in A             =   1.911594
 
 Write flags
   LWAVE  =      T    write WAVECAR
   LCHARG =      T    write CHGCAR
   LVTOT  =      F    write LOCPOT, total local potential
   LVHAR  =      F    write LOCPOT, Hartree potential only
   LELF   =      F    write electronic localiz. function (ELF)
   LORBIT =      0    0 simple, 1 ext, 2 COOP (PROOUT)


 Dipole corrections
   LMONO  =      F    monopole corrections only (constant potential shift)
   LDIPOL =      F    correct potential (dipole corrections)
   IDIPOL =      0    1-x, 2-y, 3-z, 4-all directions 
   EPSILON=  1.0000000 bulk dielectric constant

 Exchange correlation treatment:
   GGA     =    PE    GGA type
   LEXCH   =     8    internal setting for exchange type
   VOSKOWN=      0    Vosko Wilk Nusair interpolation
   LHFCALC =     F    Hartree Fock is set to
   LHFONE  =     F    Hartree Fock one center treatment
   AEXX    =    0.0000 exact exchange contribution

 Linear response parameters
   LEPSILON=     T    determine dielectric tensor
   LRPA    =     F    only Hartree local field effects (RPA)
   LNABLA  =     F    use nabla operator in PAW spheres
   LVEL    =     F    velocity operator in full k-point grid
   LINTERFAST=   F  fast interpolation
   KINTER  =     0    interpolate to denser k-point grid
   CSHIFT  =0.1000    complex shift for real part using Kramers Kronig
   OMEGAMAX=  -1.0    maximum frequency
   DEG_THRESHOLD= 0.2000000E-02 threshold for treating states as degnerate
   RTIME   =    0.100 relaxation time in fs

 Orbital magnetization related:
   ORBITALMAG=     F  switch on orbital magnetization
   LCHIMAG   =     F  perturbation theory with respect to B field
   DQ        =  0.001000  dq finite difference perturbation B field



--------------------------------------------------------------------------------------------------------


 Static calculation
 charge density and potential will be updated during run
 non-spin polarized calculation
 Variant of blocked Davidson
 Davidson routine will perform the subspace rotation
 perform sub-space diagonalisation
    after iterative eigenvector-optimisation
 modified Broyden-mixing scheme, WC =      100.0
 initial mixing is a Kerker type mixing with AMIX =  0.4000 and BMIX =      1.0000
 Hartree-type preconditioning will be used
 using additional bands           30
 reciprocal scheme for non local part
 use partial core corrections
 calculate Harris-corrections to forces 
   (improved forces if not selfconsistent)
 use gradient corrections 
 use of overlap-Matrix (Vanderbilt PP)
 Fermi weights with tetrahedron method with Bloechl corrections


--------------------------------------------------------------------------------------------------------


  energy-cutoff  :      317.13
  volume of cell :      439.52
      direct lattice vectors                 reciprocal lattice vectors
     3.185945950  0.000000000  0.000000000     0.313878520  0.181217848  0.000000000
    -1.592972975  2.759110127  0.000000000     0.000000000  0.362435696  0.000000000
     0.000000000  0.000000000 50.000000000     0.000000000  0.000000000  0.020000000

  length of vectors
     3.185945950  3.185945950 50.000000000     0.362435696  0.362435696  0.020000000


 
 k-points in units of 2pi/SCALE and weight: KPOINTS created by Atomic Simulation Env
   0.00000000  0.00000000  0.00000000       0.003
   0.01743770  0.01006766  0.00000000       0.019
   0.03487539  0.02013532  0.00000000       0.019
   0.05231309  0.03020297  0.00000000       0.019
   0.06975078  0.04027063  0.00000000       0.019
   0.08718848  0.05033829  0.00000000       0.019
   0.10462617  0.06040595  0.00000000       0.019
   0.12206387  0.07047361  0.00000000       0.019
   0.13950156  0.08054127  0.00000000       0.019
   0.15693926  0.09060892  0.00000000       0.009
   0.01743770  0.03020297  0.00000000       0.019
   0.03487539  0.04027063  0.00000000       0.037
   0.05231309  0.05033829  0.00000000       0.037
   0.06975078  0.06040595  0.00000000       0.037
   0.08718848  0.07047361  0.00000000       0.037
   0.10462617  0.08054127  0.00000000       0.037
   0.12206387  0.09060892  0.00000000       0.037
   0.13950156  0.10067658  0.00000000       0.037
   0.03487539  0.06040595  0.00000000       0.019
   0.05231309  0.07047361  0.00000000       0.037
   0.06975078  0.08054127  0.00000000       0.037
   0.08718848  0.09060892  0.00000000       0.037
   0.10462617  0.10067658  0.00000000       0.037
   0.12206387  0.11074424  0.00000000       0.037
   0.13950156  0.12081190  0.00000000       0.019
   0.05231309  0.09060892  0.00000000       0.019
   0.06975078  0.10067658  0.00000000       0.037
   0.08718848  0.11074424  0.00000000       0.037
   0.10462617  0.12081190  0.00000000       0.037
   0.12206387  0.13087956  0.00000000       0.037
   0.06975078  0.12081190  0.00000000       0.019
   0.08718848  0.13087956  0.00000000       0.037
   0.10462617  0.14094722  0.00000000       0.037
   0.12206387  0.15101487  0.00000000       0.019
   0.08718848  0.15101487  0.00000000       0.019
   0.10462617  0.16108253  0.00000000       0.037
   0.10462617  0.18121785  0.00000000       0.006
 
 k-points in reciprocal lattice and weights: KPOINTS created by Atomic Simulation Env
   0.00000000  0.00000000  0.00000000       0.003
   0.05555556  0.00000000  0.00000000       0.019
   0.11111111  0.00000000  0.00000000       0.019
   0.16666667  0.00000000  0.00000000       0.019
   0.22222222  0.00000000  0.00000000       0.019
   0.27777778  0.00000000  0.00000000       0.019
   0.33333333  0.00000000  0.00000000       0.019
   0.38888889  0.00000000  0.00000000       0.019
   0.44444444  0.00000000  0.00000000       0.019
   0.50000000  0.00000000  0.00000000       0.009
   0.05555556  0.05555556  0.00000000       0.019
   0.11111111  0.05555556  0.00000000       0.037
   0.16666667  0.05555556  0.00000000       0.037
   0.22222222  0.05555556  0.00000000       0.037
   0.27777778  0.05555556  0.00000000       0.037
   0.33333333  0.05555556  0.00000000       0.037
   0.38888889  0.05555556  0.00000000       0.037
   0.44444444  0.05555556  0.00000000       0.037
   0.11111111  0.11111111  0.00000000       0.019
   0.16666667  0.11111111  0.00000000       0.037
   0.22222222  0.11111111  0.00000000       0.037
   0.27777778  0.11111111  0.00000000       0.037
   0.33333333  0.11111111  0.00000000       0.037
   0.38888889  0.11111111  0.00000000       0.037
   0.44444444  0.11111111  0.00000000       0.019
   0.16666667  0.16666667  0.00000000       0.019
   0.22222222  0.16666667  0.00000000       0.037
   0.27777778  0.16666667  0.00000000       0.037
   0.33333333  0.16666667  0.00000000       0.037
   0.38888889  0.16666667  0.00000000       0.037
   0.22222222  0.22222222  0.00000000       0.019
   0.27777778  0.22222222  0.00000000       0.037
   0.33333333  0.22222222  0.00000000       0.037
   0.38888889  0.22222222  0.00000000       0.019
   0.27777778  0.27777778  0.00000000       0.019
   0.33333333  0.27777778  0.00000000       0.037
   0.33333333  0.33333333  0.00000000       0.006
 
 position of ions in fractional coordinates (direct lattice) 
   0.16666667  0.33333333  0.43850000
   0.83333333  0.66666667  0.56150000
   0.83333333  0.66666667  0.46995595
   0.83333333  0.66666667  0.40704405
   0.16666667  0.33333333  0.59295595
   0.16666667  0.33333333  0.53004405
 
 position of ions in cartesian coordinates  (Angst):
  -0.00000000  0.91970338 21.92500000
   1.59297297  1.83940675 28.07500000
   1.59297297  1.83940675 23.49779744
   1.59297297  1.83940675 20.35220256
  -0.00000000  0.91970338 29.64779744
  -0.00000000  0.91970338 26.50220256
 


--------------------------------------------------------------------------------------------------------


 k-point  1 :   0.0000 0.0000 0.0000  plane waves:    5665
 k-point  2 :   0.0556 0.0000 0.0000  plane waves:    5678
 k-point  3 :   0.1111 0.0000 0.0000  plane waves:    5694
 k-point  4 :   0.1667 0.0000 0.0000  plane waves:    5688
 k-point  5 :   0.2222 0.0000 0.0000  plane waves:    5678
 k-point  6 :   0.2778 0.0000 0.0000  plane waves:    5680
 k-point  7 :   0.3333 0.0000 0.0000  plane waves:    5664
 k-point  8 :   0.3889 0.0000 0.0000  plane waves:    5618
 k-point  9 :   0.4444 0.0000 0.0000  plane waves:    5614
 k-point 10 :   0.5000 0.0000 0.0000  plane waves:    5640
 k-point 11 :   0.0556 0.0556 0.0000  plane waves:    5667
 k-point 12 :   0.1111 0.0556 0.0000  plane waves:    5690
 k-point 13 :   0.1667 0.0556 0.0000  plane waves:    5692
 k-point 14 :   0.2222 0.0556 0.0000  plane waves:    5676
 k-point 15 :   0.2778 0.0556 0.0000  plane waves:    5662
 k-point 16 :   0.3333 0.0556 0.0000  plane waves:    5638
 k-point 17 :   0.3889 0.0556 0.0000  plane waves:    5616
 k-point 18 :   0.4444 0.0556 0.0000  plane waves:    5629
 k-point 19 :   0.1111 0.1111 0.0000  plane waves:    5683
 k-point 20 :   0.1667 0.1111 0.0000  plane waves:    5684
 k-point 21 :   0.2222 0.1111 0.0000  plane waves:    5654
 k-point 22 :   0.2778 0.1111 0.0000  plane waves:    5640
 k-point 23 :   0.3333 0.1111 0.0000  plane waves:    5632
 k-point 24 :   0.3889 0.1111 0.0000  plane waves:    5617
 k-point 25 :   0.4444 0.1111 0.0000  plane waves:    5622
 k-point 26 :   0.1667 0.1667 0.0000  plane waves:    5641
 k-point 27 :   0.2222 0.1667 0.0000  plane waves:    5630
 k-point 28 :   0.2778 0.1667 0.0000  plane waves:    5640
 k-point 29 :   0.3333 0.1667 0.0000  plane waves:    5611
 k-point 30 :   0.3889 0.1667 0.0000  plane waves:    5600
 k-point 31 :   0.2222 0.2222 0.0000  plane waves:    5625
 k-point 32 :   0.2778 0.2222 0.0000  plane waves:    5604
 k-point 33 :   0.3333 0.2222 0.0000  plane waves:    5590
 k-point 34 :   0.3889 0.2222 0.0000  plane waves:    5584
 k-point 35 :   0.2778 0.2778 0.0000  plane waves:    5569
 k-point 36 :   0.3333 0.2778 0.0000  plane waves:    5542
 k-point 37 :   0.3333 0.3333 0.0000  plane waves:    5520

 maximum and minimum number of plane-waves per node :      5694     5520

 maximum number of plane-waves:      5694
 maximum index in each direction: 
   IXMAX=    4   IYMAX=    4   IZMAX=   72
   IXMIN=   -5   IYMIN=   -4   IZMIN=  -72

 NGX is ok and might be reduce to  20
 NGY is ok and might be reduce to  18
 NGZ is ok and might be reduce to 290

 serial   3D FFT for wavefunctions
 parallel 3D FFT for charge:
    minimum data exchange during FFTs selected (reduces bandwidth)


 total amount of memory used by VASP on root node   134883. kBytes
========================================================================

   base      :      30000. kBytes
   nonl-proj :      88467. kBytes
   fftplans  :       1943. kBytes
   grid      :       7351. kBytes
   one-center:        194. kBytes
   wavefun   :       6928. kBytes
 
     INWAV:  cpu time    0.0000: real time    0.0000
 Broyden mixing: mesh for mixing (old mesh)
   NGX =  9   NGY =  9   NGZ =145
  (NGX  = 40   NGY  = 40   NGZ  =588)
  gives a total of  11745 points

 initial charge density was supplied:
 charge density of overlapping atoms calculated
 number of electron      52.0000000 magnetization 
 keeping initial charge density in first step


--------------------------------------------------------------------------------------------------------


 Maximum index for augmentation-charges          835 (set IRDMAX)


--------------------------------------------------------------------------------------------------------


 First call to EWALD:  gamma=   0.233
 Maximum number of real-space cells 7x 7x 1
 Maximum number of reciprocal cells 1x 1x15

 FEWALD executed in parallel
    FEWALD:  cpu time    0.0020: real time    0.0012


----------------------------------------- Iteration    1(   1)  ---------------------------------------


    POTLOK:  cpu time    0.0300: real time    0.0299
    SETDIJ:  cpu time    0.0050: real time    0.0055
     EDDAV:  cpu time    3.9794: real time    3.9826
 BZINTS: Fermi energy:  4.416019; 52.000000 electrons
         Band energy:-773.274507;  BLOECHL correction: -0.267670
       DOS:  cpu time    0.0150: real time    0.0153
    --------------------------------------------
      LOOP:  cpu time    4.0304: real time    4.0355

 eigenvalue-minimisations  :  5740
 total energy-change (2. order) : 0.2277070E+03  (-0.2160891E+04)
 number of electron      52.0000000 magnetization 
 augmentation part       52.0000000 magnetization 

 Free energy of the ion-electron system (eV)
  ---------------------------------------------------
  alpha Z        PSCENC =        46.77892782
  Ewald energy   TEWEN  =     66081.09229217
  -Hartree energ DENC   =    -70190.63865126
  -exchange      EXHF   =         0.00000000
  -V(xc)+E(xc)   XCENC  =        -2.46378537
  PAW double counting   =      4003.83443430    -3772.20937046
  entropy T*S    EENTRO =         0.00000000
  eigenvalues    EBANDS =      -773.27450706
  atomic energy  EATOM  =      4834.58770047
  Solvation  Ediel_sol  =         0.00000000
  ---------------------------------------------------
  free energy    TOTEN  =       227.70704060 eV

  energy without entropy =      227.70704060  energy(sigma->0) =      227.70704060


--------------------------------------------------------------------------------------------------------




----------------------------------------- Iteration    1(   2)  ---------------------------------------


     EDDAV:  cpu time    4.8363: real time    4.8431
 BZINTS: Fermi energy: -0.740325; 52.000000 electrons
         Band energy:***********;  BLOECHL correction:  0.000000
       DOS:  cpu time    0.0030: real time    0.0033
    --------------------------------------------
      LOOP:  cpu time    4.8423: real time    4.8511

 eigenvalue-minimisations  :  7084
 total energy-change (2. order) :-0.2744630E+03  (-0.2629749E+03)
 number of electron      52.0000000 magnetization 
 augmentation part       52.0000000 magnetization 

 Free energy of the ion-electron system (eV)
  ---------------------------------------------------
  alpha Z        PSCENC =        46.77892782
  Ewald energy   TEWEN  =     66081.09229217
  -Hartree energ DENC   =    -70190.63865126
  -exchange      EXHF   =         0.00000000
  -V(xc)+E(xc)   XCENC  =        -2.46378537
  PAW double counting   =      4003.83443430    -3772.20937046
  entropy T*S    EENTRO =         0.00000000
  eigenvalues    EBANDS =     -1047.73749546
  atomic energy  EATOM  =      4834.58770047
  Solvation  Ediel_sol  =         0.00000000
  ---------------------------------------------------
  free energy    TOTEN  =       -46.75594780 eV

  energy without entropy =      -46.75594780  energy(sigma->0) =      -46.75594780


--------------------------------------------------------------------------------------------------------




----------------------------------------- Iteration    1(   3)  ---------------------------------------


     EDDAV:  cpu time    3.3945: real time    3.3971
 BZINTS: Fermi energy: -1.655545; 52.000000 electrons
         Band energy:***********;  BLOECHL correction:  0.000000
       DOS:  cpu time    0.0030: real time    0.0028
    --------------------------------------------
      LOOP:  cpu time    3.3985: real time    3.4032

 eigenvalue-minimisations  :  4844
 total energy-change (2. order) :-0.9894825E+01  (-0.9791040E+01)
 number of electron      52.0000000 magnetization 
 augmentation part       52.0000000 magnetization 

 Free energy of the ion-electron system (eV)
  ---------------------------------------------------
  alpha Z        PSCENC =        46.77892782
  Ewald energy   TEWEN  =     66081.09229217
  -Hartree energ DENC   =    -70190.63865126
  -exchange      EXHF   =         0.00000000
  -V(xc)+E(xc)   XCENC  =        -2.46378537
  PAW double counting   =      4003.83443430    -3772.20937046
  entropy T*S    EENTRO =         0.00000000
  eigenvalues    EBANDS =     -1057.63232095
  atomic energy  EATOM  =      4834.58770047
  Solvation  Ediel_sol  =         0.00000000
  ---------------------------------------------------
  free energy    TOTEN  =       -56.65077329 eV

  energy without entropy =      -56.65077329  energy(sigma->0) =      -56.65077329


--------------------------------------------------------------------------------------------------------




----------------------------------------- Iteration    1(   4)  ---------------------------------------


     EDDAV:  cpu time    4.7323: real time    4.7363
 BZINTS: Fermi energy: -1.450083; 52.000000 electrons
         Band energy:***********;  BLOECHL correction:  0.000000
       DOS:  cpu time    0.0040: real time    0.0032
    --------------------------------------------
      LOOP:  cpu time    4.7373: real time    4.7420

 eigenvalue-minimisations  :  6944
 total energy-change (2. order) :-0.2493102E+00  (-0.2491567E+00)
 number of electron      52.0000000 magnetization 
 augmentation part       52.0000000 magnetization 

 Free energy of the ion-electron system (eV)
  ---------------------------------------------------
  alpha Z        PSCENC =        46.77892782
  Ewald energy   TEWEN  =     66081.09229217
  -Hartree energ DENC   =    -70190.63865126
  -exchange      EXHF   =         0.00000000
  -V(xc)+E(xc)   XCENC  =        -2.46378537
  PAW double counting   =      4003.83443430    -3772.20937046
  entropy T*S    EENTRO =         0.00000000
  eigenvalues    EBANDS =     -1057.88163112
  atomic energy  EATOM  =      4834.58770047
  Solvation  Ediel_sol  =         0.00000000
  ---------------------------------------------------
  free energy    TOTEN  =       -56.90008346 eV

  energy without entropy =      -56.90008346  energy(sigma->0) =      -56.90008346


--------------------------------------------------------------------------------------------------------




----------------------------------------- Iteration    1(   5)  ---------------------------------------


     EDDAV:  cpu time    3.4705: real time    3.4727
 BZINTS: Fermi energy: -1.459126; 52.000000 electrons
         Band energy:***********;  BLOECHL correction:  0.000000
       DOS:  cpu time    0.0030: real time    0.0032
    CHARGE:  cpu time    0.0910: real time    0.0917
    MIXING:  cpu time    0.0010: real time    0.0012
    --------------------------------------------
      LOOP:  cpu time    3.5655: real time    3.5734

 eigenvalue-minimisations  :  4956
 total energy-change (2. order) :-0.1384140E-02  (-0.1384122E-02)
 number of electron      52.0000010 magnetization 
 augmentation part       -6.9157238 magnetization 

 Broyden mixing:
  rms(total) = 0.10870E+02    rms(broyden)= 0.10870E+02
  rms(prec ) = 0.10874E+02
  weight for this iteration     100.00

 Free energy of the ion-electron system (eV)
  ---------------------------------------------------
  alpha Z        PSCENC =        46.77892782
  Ewald energy   TEWEN  =     66081.09229217
  -Hartree energ DENC   =    -70190.63865126
  -exchange      EXHF   =         0.00000000
  -V(xc)+E(xc)   XCENC  =        -2.46378537
  PAW double counting   =      4003.83443430    -3772.20937046
  entropy T*S    EENTRO =         0.00000000
  eigenvalues    EBANDS =     -1057.88301527
  atomic energy  EATOM  =      4834.58770047
  Solvation  Ediel_sol  =         0.00000000
  ---------------------------------------------------
  free energy    TOTEN  =       -56.90146760 eV

  energy without entropy =      -56.90146760  energy(sigma->0) =      -56.90146760


--------------------------------------------------------------------------------------------------------




----------------------------------------- Iteration    1(   6)  ---------------------------------------


    POTLOK:  cpu time    0.0260: real time    0.0271
    SETDIJ:  cpu time    0.0050: real time    0.0052
     EDDAV:  cpu time    2.9665: real time    2.9675
 BZINTS: Fermi energy: -2.785330; 52.000000 electrons
         Band energy:***********;  BLOECHL correction:  0.000000
       DOS:  cpu time    0.0020: real time    0.0028
    CHARGE:  cpu time    0.0920: real time    0.0919
    MIXING:  cpu time    0.0010: real time    0.0010
    --------------------------------------------
      LOOP:  cpu time    3.0935: real time    3.0978

 eigenvalue-minimisations  :  4172
 total energy-change (2. order) : 0.4999443E+01  (-0.1679790E+01)
 number of electron      52.0000009 magnetization 
 augmentation part       -6.4720294 magnetization 

 Broyden mixing:
  rms(total) = 0.10522E+02    rms(broyden)= 0.10522E+02
  rms(prec ) = 0.10522E+02
  weight for this iteration     100.00

 eigenvalues of (default mixing * dielectric matrix)
  average eigenvalue GAMMA=   1.7193
  1.7193

 Free energy of the ion-electron system (eV)
  ---------------------------------------------------
  alpha Z        PSCENC =        46.77892782
  Ewald energy   TEWEN  =     66081.09229217
  -Hartree energ DENC   =    -70110.52373214
  -exchange      EXHF   =         0.00000000
  -V(xc)+E(xc)   XCENC  =        -3.41605884
  PAW double counting   =      5044.43117887    -4816.01102025
  entropy T*S    EENTRO =         0.00000000
  eigenvalues    EBANDS =     -1128.84131287
  atomic energy  EATOM  =      4834.58770047
  Solvation  Ediel_sol  =         0.00000000
  ---------------------------------------------------
  free energy    TOTEN  =       -51.90202477 eV

  energy without entropy =      -51.90202477  energy(sigma->0) =      -51.90202477


--------------------------------------------------------------------------------------------------------




----------------------------------------- Iteration    1(   7)  ---------------------------------------


    POTLOK:  cpu time    0.0260: real time    0.0268
    SETDIJ:  cpu time    0.0050: real time    0.0052
     EDDAV:  cpu time    3.6684: real time    3.6700
 BZINTS: Fermi energy: -1.926206; 52.000000 electrons
         Band energy:***********;  BLOECHL correction:  0.000000
       DOS:  cpu time    0.0020: real time    0.0032
    CHARGE:  cpu time    0.0920: real time    0.0919
    MIXING:  cpu time    0.0010: real time    0.0010
    --------------------------------------------
      LOOP:  cpu time    3.7954: real time    3.8005

 eigenvalue-minimisations  :  5292
 total energy-change (2. order) :-0.1280146E-01  (-0.5745657E+00)
 number of electron      52.0000010 magnetization 
 augmentation part       -6.6835442 magnetization 

 Broyden mixing:
  rms(total) = 0.71856E+00    rms(broyden)= 0.71853E+00
  rms(prec ) = 0.72622E+00
  weight for this iteration     100.00

 eigenvalues of (default mixing * dielectric matrix)
  average eigenvalue GAMMA=   1.4339
  0.8351  2.0326

 Free energy of the ion-electron system (eV)
  ---------------------------------------------------
  alpha Z        PSCENC =        46.77892782
  Ewald energy   TEWEN  =     66081.09229217
  -Hartree energ DENC   =    -70168.64501635
  -exchange      EXHF   =         0.00000000
  -V(xc)+E(xc)   XCENC  =        -3.51020506
  PAW double counting   =      6459.82560277    -6228.26700817
  entropy T*S    EENTRO =         0.00000000
  eigenvalues    EBANDS =     -1073.77711988
  atomic energy  EATOM  =      4834.58770047
  Solvation  Ediel_sol  =         0.00000000
  ---------------------------------------------------
  free energy    TOTEN  =       -51.91482623 eV

  energy without entropy =      -51.91482623  energy(sigma->0) =      -51.91482623


--------------------------------------------------------------------------------------------------------




----------------------------------------- Iteration    1(   8)  ---------------------------------------


    POTLOK:  cpu time    0.0260: real time    0.0268
    SETDIJ:  cpu time    0.0050: real time    0.0052
     EDDAV:  cpu time    3.5515: real time    3.5533
 BZINTS: Fermi energy: -2.446454; 52.000000 electrons
         Band energy:***********;  BLOECHL correction:  0.000000
       DOS:  cpu time    0.0030: real time    0.0032
    CHARGE:  cpu time    0.0920: real time    0.0917
    MIXING:  cpu time    0.0010: real time    0.0010
    --------------------------------------------
      LOOP:  cpu time    3.6794: real time    3.6844

 eigenvalue-minimisations  :  5068
 total energy-change (2. order) : 0.5640598E+00  (-0.1731054E+00)
 number of electron      52.0000010 magnetization 
 augmentation part       -6.5429806 magnetization 

 Broyden mixing:
  rms(total) = 0.54738E+00    rms(broyden)= 0.54736E+00
  rms(prec ) = 0.54777E+00
  weight for this iteration     100.00

 eigenvalues of (default mixing * dielectric matrix)
  average eigenvalue GAMMA=   1.4043
  2.0827  1.3812  0.7490

 Free energy of the ion-electron system (eV)
  ---------------------------------------------------
  alpha Z        PSCENC =        46.77892782
  Ewald energy   TEWEN  =     66081.09229217
  -Hartree energ DENC   =    -70139.71053011
  -exchange      EXHF   =         0.00000000
  -V(xc)+E(xc)   XCENC  =        -3.70784326
  PAW double counting   =      6692.55372440    -6461.35943033
  entropy T*S    EENTRO =         0.00000000
  eigenvalues    EBANDS =     -1101.58560763
  atomic energy  EATOM  =      4834.58770047
  Solvation  Ediel_sol  =         0.00000000
  ---------------------------------------------------
  free energy    TOTEN  =       -51.35076648 eV

  energy without entropy =      -51.35076648  energy(sigma->0) =      -51.35076648


--------------------------------------------------------------------------------------------------------




----------------------------------------- Iteration    1(   9)  ---------------------------------------


    POTLOK:  cpu time    0.0260: real time    0.0269
    SETDIJ:  cpu time    0.0050: real time    0.0052
     EDDAV:  cpu time    4.0044: real time    4.0074
 BZINTS: Fermi energy: -2.319512; 52.000000 electrons
         Band energy:***********;  BLOECHL correction:  0.000000
       DOS:  cpu time    0.0020: real time    0.0029
    CHARGE:  cpu time    0.0930: real time    0.0923
    MIXING:  cpu time    0.0010: real time    0.0010
    --------------------------------------------
      LOOP:  cpu time    4.1334: real time    4.1380

 eigenvalue-minimisations  :  5768
 total energy-change (2. order) : 0.1155702E-01  (-0.1431420E-01)
 number of electron      52.0000010 magnetization 
 augmentation part       -6.5656868 magnetization 

 Broyden mixing:
  rms(total) = 0.28127E+00    rms(broyden)= 0.28127E+00
  rms(prec ) = 0.28131E+00
  weight for this iteration     100.00

 eigenvalues of (default mixing * dielectric matrix)
  average eigenvalue GAMMA=   1.4031
  2.0431  2.0431  0.8191  0.7071

 Free energy of the ion-electron system (eV)
  ---------------------------------------------------
  alpha Z        PSCENC =        46.77892782
  Ewald energy   TEWEN  =     66081.09229217
  -Hartree energ DENC   =    -70148.30457032
  -exchange      EXHF   =         0.00000000
  -V(xc)+E(xc)   XCENC  =        -3.65431136
  PAW double counting   =      6701.00267050    -6469.17368311
  entropy T*S    EENTRO =         0.00000000
  eigenvalues    EBANDS =     -1093.66823563
  atomic energy  EATOM  =      4834.58770047
  Solvation  Ediel_sol  =         0.00000000
  ---------------------------------------------------
  free energy    TOTEN  =       -51.33920946 eV

  energy without entropy =      -51.33920946  energy(sigma->0) =      -51.33920946


--------------------------------------------------------------------------------------------------------




----------------------------------------- Iteration    1(  10)  ---------------------------------------


    POTLOK:  cpu time    0.0260: real time    0.0269
    SETDIJ:  cpu time    0.0050: real time    0.0051
     EDDAV:  cpu time    4.1694: real time    4.1719
 BZINTS: Fermi energy: -2.310270; 52.000000 electrons
         Band energy:***********;  BLOECHL correction:  0.000000
       DOS:  cpu time    0.0030: real time    0.0028
    CHARGE:  cpu time    0.0920: real time    0.0922
    MIXING:  cpu time    0.0010: real time    0.0010
    --------------------------------------------
      LOOP:  cpu time    4.2973: real time    4.3025

 eigenvalue-minimisations  :  5964
 total energy-change (2. order) :-0.7172674E-03  (-0.1082574E-02)
 number of electron      52.0000010 magnetization 
 augmentation part       -6.5691046 magnetization 

 Broyden mixing:
  rms(total) = 0.42410E-01    rms(broyden)= 0.42410E-01
  rms(prec ) = 0.42589E-01
  weight for this iteration     100.00

 eigenvalues of (default mixing * dielectric matrix)
  average eigenvalue GAMMA=   1.4659
  2.3665  2.0917  1.3349  0.7682  0.7682

 Free energy of the ion-electron system (eV)
  ---------------------------------------------------
  alpha Z        PSCENC =        46.77892782
  Ewald energy   TEWEN  =     66081.09229217
  -Hartree energ DENC   =    -70150.20482931
  -exchange      EXHF   =         0.00000000
  -V(xc)+E(xc)   XCENC  =        -3.62211355
  PAW double counting   =      6595.36341065    -6363.34051437
  entropy T*S    EENTRO =         0.00000000
  eigenvalues    EBANDS =     -1091.99480061
  atomic energy  EATOM  =      4834.58770047
  Solvation  Ediel_sol  =         0.00000000
  ---------------------------------------------------
  free energy    TOTEN  =       -51.33992673 eV

  energy without entropy =      -51.33992673  energy(sigma->0) =      -51.33992673


--------------------------------------------------------------------------------------------------------




----------------------------------------- Iteration    1(  11)  ---------------------------------------


    POTLOK:  cpu time    0.0260: real time    0.0268
    SETDIJ:  cpu time    0.0050: real time    0.0052
     EDDAV:  cpu time    4.1074: real time    4.1120
 BZINTS: Fermi energy: -2.068250; 52.000000 electrons
         Band energy:***********;  BLOECHL correction:  0.000000
       DOS:  cpu time    0.0040: real time    0.0032
    CHARGE:  cpu time    0.0910: real time    0.0915
    MIXING:  cpu time    0.0010: real time    0.0011
    --------------------------------------------
      LOOP:  cpu time    4.2354: real time    4.2421

 eigenvalue-minimisations  :  5852
 total energy-change (2. order) : 0.7974553E-03  (-0.2581869E-03)
 number of electron      52.0000010 magnetization 
 augmentation part       -6.5651833 magnetization 

 Broyden mixing:
  rms(total) = 0.19828E-01    rms(broyden)= 0.19828E-01
  rms(prec ) = 0.19897E-01
  weight for this iteration     100.00

 eigenvalues of (default mixing * dielectric matrix)
  average eigenvalue GAMMA=   1.4224
  2.3141  2.1568  1.4409  1.1459  0.7385  0.7385

 Free energy of the ion-electron system (eV)
  ---------------------------------------------------
  alpha Z        PSCENC =        46.77892782
  Ewald energy   TEWEN  =     66081.09229217
  -Hartree energ DENC   =    -70152.71748175
  -exchange      EXHF   =         0.00000000
  -V(xc)+E(xc)   XCENC  =        -3.61651187
  PAW double counting   =      6595.07773605    -6362.92233524
  entropy T*S    EENTRO =         0.00000000
  eigenvalues    EBANDS =     -1089.61945692
  atomic energy  EATOM  =      4834.58770047
  Solvation  Ediel_sol  =         0.00000000
  ---------------------------------------------------
  free energy    TOTEN  =       -51.33912927 eV

  energy without entropy =      -51.33912927  energy(sigma->0) =      -51.33912927


--------------------------------------------------------------------------------------------------------




----------------------------------------- Iteration    1(  12)  ---------------------------------------


    POTLOK:  cpu time    0.0270: real time    0.0271
    SETDIJ:  cpu time    0.0050: real time    0.0051
     EDDAV:  cpu time    4.3623: real time    4.3684
 BZINTS: Fermi energy: -2.078662; 52.000000 electrons
         Band energy:***********;  BLOECHL correction:  0.000000
       DOS:  cpu time    0.0030: real time    0.0032
    CHARGE:  cpu time    0.0920: real time    0.0919
    MIXING:  cpu time    0.0010: real time    0.0011
    --------------------------------------------
      LOOP:  cpu time    4.4913: real time    4.4996

 eigenvalue-minimisations  :  6272
 total energy-change (2. order) : 0.5541187E-04  (-0.1966163E-04)
 number of electron      52.0000010 magnetization 
 augmentation part       -6.5659778 magnetization 

 Broyden mixing:
  rms(total) = 0.15333E-01    rms(broyden)= 0.15332E-01
  rms(prec ) = 0.15376E-01
  weight for this iteration     100.00

 eigenvalues of (default mixing * dielectric matrix)
  average eigenvalue GAMMA=   1.5124
  2.6169  2.2794  1.6027  1.6027  0.7613  0.7613  0.9625

 Free energy of the ion-electron system (eV)
  ---------------------------------------------------
  alpha Z        PSCENC =        46.77892782
  Ewald energy   TEWEN  =     66081.09229217
  -Hartree energ DENC   =    -70154.01652090
  -exchange      EXHF   =         0.00000000
  -V(xc)+E(xc)   XCENC  =        -3.61147531
  PAW double counting   =      6589.53169764    -6357.37461334
  entropy T*S    EENTRO =         0.00000000
  eigenvalues    EBANDS =     -1088.32708242
  atomic energy  EATOM  =      4834.58770047
  Solvation  Ediel_sol  =         0.00000000
  ---------------------------------------------------
  free energy    TOTEN  =       -51.33907386 eV

  energy without entropy =      -51.33907386  energy(sigma->0) =      -51.33907386


--------------------------------------------------------------------------------------------------------




----------------------------------------- Iteration    1(  13)  ---------------------------------------


    POTLOK:  cpu time    0.0280: real time    0.0284
    SETDIJ:  cpu time    0.0060: real time    0.0052
     EDDAV:  cpu time    4.0274: real time    4.0311
 BZINTS: Fermi energy: -2.092052; 52.000000 electrons
         Band energy:***********;  BLOECHL correction:  0.000000
       DOS:  cpu time    0.0020: real time    0.0032
    CHARGE:  cpu time    0.0920: real time    0.0914
    MIXING:  cpu time    0.0010: real time    0.0011
    --------------------------------------------
      LOOP:  cpu time    4.1564: real time    4.1631

 eigenvalue-minimisations  :  5796
 total energy-change (2. order) : 0.1342036E-04  (-0.4903279E-05)
 number of electron      52.0000010 magnetization 
 augmentation part       -6.5658282 magnetization 

 Broyden mixing:
  rms(total) = 0.97233E-03    rms(broyden)= 0.97222E-03
  rms(prec ) = 0.12477E-02
  weight for this iteration     100.00

 eigenvalues of (default mixing * dielectric matrix)
  average eigenvalue GAMMA=   1.6017
  2.9579  2.5394  2.0608  0.7583  0.7583  0.9168  1.4109  1.4109

 Free energy of the ion-electron system (eV)
  ---------------------------------------------------
  alpha Z        PSCENC =        46.77892782
  Ewald energy   TEWEN  =     66081.09229217
  -Hartree energ DENC   =    -70155.49023098
  -exchange      EXHF   =         0.00000000
  -V(xc)+E(xc)   XCENC  =        -3.60575410
  PAW double counting   =      6580.98214011    -6348.82542850
  entropy T*S    EENTRO =         0.00000000
  eigenvalues    EBANDS =     -1086.85870743
  atomic energy  EATOM  =      4834.58770047
  Solvation  Ediel_sol  =         0.00000000
  ---------------------------------------------------
  free energy    TOTEN  =       -51.33906044 eV

  energy without entropy =      -51.33906044  energy(sigma->0) =      -51.33906044


--------------------------------------------------------------------------------------------------------




----------------------------------------- Iteration    1(  14)  ---------------------------------------


    POTLOK:  cpu time    0.0270: real time    0.0270
    SETDIJ:  cpu time    0.0060: real time    0.0051
     EDDAV:  cpu time    3.9374: real time    3.9399
 BZINTS: Fermi energy: -2.098698; 52.000000 electrons
         Band energy:***********;  BLOECHL correction:  0.000000
       DOS:  cpu time    0.0030: real time    0.0032
    CHARGE:  cpu time    0.0900: real time    0.0912
    MIXING:  cpu time    0.0010: real time    0.0011
    --------------------------------------------
      LOOP:  cpu time    4.0644: real time    4.0702

 eigenvalue-minimisations  :  5656
 total energy-change (2. order) :-0.5044946E-04  (-0.1416796E-05)
 number of electron      52.0000010 magnetization 
 augmentation part       -6.5657799 magnetization 

 Broyden mixing:
  rms(total) = 0.20437E-02    rms(broyden)= 0.20436E-02
  rms(prec ) = 0.21045E-02
  weight for this iteration     100.00

 eigenvalues of (default mixing * dielectric matrix)
  average eigenvalue GAMMA=   1.6388
  3.4964  2.4430  2.2827  1.5260  1.5260  0.7592  0.7592  1.0253  0.9314

 Free energy of the ion-electron system (eV)
  ---------------------------------------------------
  alpha Z        PSCENC =        46.77892782
  Ewald energy   TEWEN  =     66081.09229217
  -Hartree energ DENC   =    -70156.69112992
  -exchange      EXHF   =         0.00000000
  -V(xc)+E(xc)   XCENC  =        -3.60291212
  PAW double counting   =      6579.41686785    -6347.26651473
  entropy T*S    EENTRO =         0.00000000
[...]
      LOOP:  cpu time    4.1344: real time    4.1389

 Broyden mixing:
  rms(total) = 0.98991E-05    rms(broyden)= 0.98987E-05
  rms(prec ) = 0.12237E-04
  weight for this iteration     100.00

 eigenvalues of (default mixing * dielectric matrix)
  average eigenvalue GAMMA=   2.4113
  7.7577  6.7955  3.8489  3.8489  2.5268  2.5268  1.8301  1.8301  1.4173  1.1253
  0.8004  0.9800  0.9800  0.9554  0.6830  0.6740

 Free energy of the ion-electron system (eV)
  ---------------------------------------------------
  -Hartree energ DENC   =        -0.25430091
  -V(xc)+E(xc)   XCENC  =         0.00374366
  PAW double counting   =         0.00787042       -0.00789794
  entropy T*S    EENTRO =         0.00000000
  eigenvalues    EBANDS =        -0.06833487
  ---------------------------------------------------
  free energy    TOTEN  =        -0.31891965 eV

  energy without entropy =       -0.31891965


----------------------------------------- Iteration    3(  19)  ---------------------------------------


   POT+DIJ:  cpu time    0.0690: real time    0.0698
    HAMIL1:  cpu time    0.6659: real time    0.6659
    LRDIAG:  cpu time    0.1170: real time    0.1174
    LRDIIS:  cpu time    2.6806: real time    2.6816
    LRDIAG:  cpu time    0.1120: real time    0.1124
    MIXING:  cpu time    0.0030: real time    0.0023
    --------------------------------------------
      LOOP:  cpu time    3.8854: real time    3.8890

 Broyden mixing:
  rms(total) = 0.52721E-05    rms(broyden)= 0.52717E-05
  rms(prec ) = 0.57915E-05
  weight for this iteration     100.00

 eigenvalues of (default mixing * dielectric matrix)
  average eigenvalue GAMMA=   2.3905
  8.0090  7.1336  4.0134  3.8004  2.6130  2.6130  1.8416  1.8416  1.3033  1.3033
  0.8004  1.0326  1.0326  0.9623  0.9759  0.6830  0.6792

 Free energy of the ion-electron system (eV)
  ---------------------------------------------------
  -Hartree energ DENC   =        -0.25430337
  -V(xc)+E(xc)   XCENC  =         0.00374372
  PAW double counting   =         0.00786806       -0.00789560
  entropy T*S    EENTRO =         0.00000000
  eigenvalues    EBANDS =        -0.06832931
  ---------------------------------------------------
  free energy    TOTEN  =        -0.31891651 eV

  energy without entropy =       -0.31891651


----------------------------------------- Iteration    3(  20)  ---------------------------------------


   POT+DIJ:  cpu time    0.0690: real time    0.0697
    HAMIL1:  cpu time    0.6659: real time    0.6662
    LRDIAG:  cpu time    0.1170: real time    0.1171
    LRDIIS:  cpu time    2.7956: real time    2.7965
    LRDIAG:  cpu time    0.1120: real time    0.1122
    MIXING:  cpu time    0.0020: real time    0.0024
    --------------------------------------------
      LOOP:  cpu time    3.9954: real time    3.9996

 Broyden mixing:
  rms(total) = 0.35307E-05    rms(broyden)= 0.35305E-05
  rms(prec ) = 0.39136E-05
  weight for this iteration     100.00

 eigenvalues of (default mixing * dielectric matrix)
  average eigenvalue GAMMA=   2.4762
  8.3742  7.4951  4.7457  3.6419  2.8812  2.8812  2.0916  2.0916  1.6853  1.3990
  1.1644  0.9958  0.9958  1.0045  0.9520  0.8004  0.6830  0.6886

 Free energy of the ion-electron system (eV)
  ---------------------------------------------------
  -Hartree energ DENC   =        -0.25430246
  -V(xc)+E(xc)   XCENC  =         0.00374359
  PAW double counting   =         0.00787050       -0.00789807
  entropy T*S    EENTRO =         0.00000000
  eigenvalues    EBANDS =        -0.06832876
  ---------------------------------------------------
  free energy    TOTEN  =        -0.31891520 eV

  energy without entropy =       -0.31891520


----------------------------------------- Iteration    3(  21)  ---------------------------------------


   POT+DIJ:  cpu time    0.0690: real time    0.0697
    HAMIL1:  cpu time    0.6609: real time    0.6604
    LRDIAG:  cpu time    0.1170: real time    0.1175
    LRDIIS:  cpu time    2.7606: real time    2.7616
    LRDIAG:  cpu time    0.1120: real time    0.1118
    MIXING:  cpu time    0.0030: real time    0.0024
    --------------------------------------------
      LOOP:  cpu time    3.9634: real time    3.9665

 Broyden mixing:
  rms(total) = 0.16604E-05    rms(broyden)= 0.16603E-05
  rms(prec ) = 0.17847E-05
  weight for this iteration     100.00

 eigenvalues of (default mixing * dielectric matrix)
  average eigenvalue GAMMA=   2.4801
  8.3695  7.8350  5.0417  3.8863  2.9674  2.9674  2.1569  2.1569  1.6825  1.4399
  1.4399  0.6830  0.8004  1.0916  0.9965  0.9965  0.9587  0.9587  0.6927

 Free energy of the ion-electron system (eV)
  ---------------------------------------------------
  -Hartree energ DENC   =        -0.25430359
  -V(xc)+E(xc)   XCENC  =         0.00374347
  PAW double counting   =         0.00787020       -0.00789776
  entropy T*S    EENTRO =         0.00000000
  eigenvalues    EBANDS =        -0.06832772
  ---------------------------------------------------
  free energy    TOTEN  =        -0.31891541 eV

  energy without entropy =       -0.31891541


----------------------------------------- Iteration    3(  22)  ---------------------------------------


   POT+DIJ:  cpu time    0.0690: real time    0.0696
    HAMIL1:  cpu time    0.6639: real time    0.6636
    LRDIAG:  cpu time    0.1170: real time    0.1172
    LRDIIS:  cpu time    2.6076: real time    2.6084
    LRDIAG:  cpu time    0.1120: real time    0.1120
    MIXING:  cpu time    0.0020: real time    0.0026
    --------------------------------------------
      LOOP:  cpu time    3.8054: real time    3.8095

 Broyden mixing:
  rms(total) = 0.11345E-05    rms(broyden)= 0.11344E-05
  rms(prec ) = 0.11950E-05
  weight for this iteration     100.00

 eigenvalues of (default mixing * dielectric matrix)
  average eigenvalue GAMMA=   2.5210
  8.9524  7.8013  5.5107  4.1702  3.1085  3.1085  2.3020  2.3020  1.8776  1.7179
  1.4012  1.1562  1.0227  0.9873  0.9873  0.9568  0.8004  0.6830  0.8815  0.6924

 Free energy of the ion-electron system (eV)
  ---------------------------------------------------
  -Hartree energ DENC   =        -0.25430369
  -V(xc)+E(xc)   XCENC  =         0.00374343
  PAW double counting   =         0.00786985       -0.00789739
  entropy T*S    EENTRO =         0.00000000
  eigenvalues    EBANDS =        -0.06832698
  ---------------------------------------------------
  free energy    TOTEN  =        -0.31891478 eV

  energy without entropy =       -0.31891478


----------------------------------------- Iteration    3(  23)  ---------------------------------------


   POT+DIJ:  cpu time    0.0690: real time    0.0698
    HAMIL1:  cpu time    0.6669: real time    0.6675
    LRDIAG:  cpu time    0.1180: real time    0.1179
    LRDIIS:  cpu time    2.6766: real time    2.6772
    LRDIAG:  cpu time    0.1130: real time    0.1126
    MIXING:  cpu time    0.0030: real time    0.0025
    --------------------------------------------
      LOOP:  cpu time    3.8764: real time    3.8806

 Broyden mixing:
  rms(total) = 0.29997E-06    rms(broyden)= 0.29994E-06
  rms(prec ) = 0.32920E-06
  weight for this iteration     100.00

 eigenvalues of (default mixing * dielectric matrix)
  average eigenvalue GAMMA=   2.4993
  9.1625  7.8012  5.6705  4.3355  3.1264  3.1264  2.3820  2.3820  1.9174  1.7645
  1.3822  1.3822  0.6830  0.8004  1.0949  0.9942  0.9942  0.9574  0.9574  0.8794
  0.6918

 Free energy of the ion-electron system (eV)
  ---------------------------------------------------
  -Hartree energ DENC   =        -0.25430340
  -V(xc)+E(xc)   XCENC  =         0.00374338
  PAW double counting   =         0.00787009       -0.00789764
  entropy T*S    EENTRO =         0.00000000
  eigenvalues    EBANDS =        -0.06832728
  ---------------------------------------------------
  free energy    TOTEN  =        -0.31891486 eV

  energy without entropy =       -0.31891486


------------------------ aborting loop because EDIFF is reached ----------------------------------------


 change of polarisation eV/A/(eV/A) component  3 :    -0.004     0.001     0.626
 dielectric tensor                  component  3 :    -0.002     0.001     1.258


--------------------------------------------------------------------------------------------------------


    FORLOC:  cpu time    0.0020: real time    0.0023
    FORNL :  cpu time    0.4239: real time    0.4225
    STRESS:  cpu time    2.0397: real time    2.0409
    FORCOR:  cpu time    0.0300: real time    0.0296
    OFIELD:  cpu time    0.0000: real time    0.0002

  Hirshfeld charges:
            ion         q(e)     
   ------------------------------
      1     W           0.351
      2     W           0.351
      3     S          -0.175
      4     S          -0.176
      5     S          -0.176
      6     S          -0.175

  Tkatchenko/Scheffler method for vdW energy calculation
  ---------------------------------------------------------------------------------------------

  Parameters of vdW forcefield:
            C6ts              R0ts           ALPHAts        RELVOL
            (au)              (au)            (au)                
   ---------------------------------------------------------------
   W         873.722          4.102         72.113          1.015
   W         873.722          4.102         72.113          1.015
   S         135.462          3.862         19.707          1.005
   S         132.616          3.848         19.498          0.995
   S         132.616          3.848         19.498          0.995
   S         135.462          3.862         19.707          1.005
  Edisp (eV):   -1.45201
    FORVDW:  cpu time    0.2210: real time    0.2209
    FORLOC:  cpu time    0.0030: real time    0.0023
    FORNL :  cpu time    0.4219: real time    0.4219
    STRESS:  cpu time    2.0297: real time    2.0306
    FORCOR:  cpu time    0.0280: real time    0.0278
    OFIELD:  cpu time    0.0000: real time    0.0002

  Hirshfeld charges:
            ion         q(e)     
   ------------------------------
      1     W           0.351
      2     W           0.351
      3     S          -0.175
      4     S          -0.176
      5     S          -0.176
      6     S          -0.175

  Tkatchenko/Scheffler method for vdW energy calculation
  ---------------------------------------------------------------------------------------------

  Parameters of vdW forcefield:
            C6ts              R0ts           ALPHAts        RELVOL
            (au)              (au)            (au)                
   ---------------------------------------------------------------
   W         873.722          4.102         72.113          1.015
   W         873.722          4.102         72.113          1.015
   S         135.462          3.862         19.707          1.005
   S         132.616          3.848         19.498          0.995
   S         132.616          3.848         19.498          0.995
   S         135.462          3.862         19.707          1.005
  Edisp (eV):   -1.45201
    FORVDW:  cpu time    0.2200: real time    0.2198
    FORNLD:  cpu time    1.6198: real time    1.6215

 PIEZOELECTRIC TENSOR FIELD DIRECTION 3  (e Angst)
 -----------------------------------------------------------------------------
     0.00024  0.00000  0.00000           ( -0.00000  0.00000  0.00000)
     0.00000  0.00024  0.00000           (  0.00000 -0.00000  0.00000)
     0.00000  0.00000  0.00014           (  0.00000  0.00000  0.00000)

 PIEZOELECTRIC TENSOR FIELD DIRECTION 3  (C/m^2)
 -----------------------------------------------------------------------------
     0.00001  0.00000  0.00000
     0.00000  0.00001  0.00000
     0.00000  0.00000  0.00001


      POSITION         DIRECTION 3           BORN EFFECTIVE CHARGE    (rigid.aug.   ionic)
 -----------------------------------------------------------------------------------------
     -0.00000      0.91970     21.92500    -0.00000  0.00000 -3.59245 (  1.96478 14.00000)
      1.59297      1.83941     28.07500     0.00000 -0.00000 -3.59144 (  1.96478 14.00000)
      1.59297      1.83941     23.49780     0.00000 -0.00000  0.03907 (  0.65942  6.00000)
      1.59297      1.83941     20.35220    -0.00000  0.00000  0.13093 (  0.65870  6.00000)
     -0.00000      0.91970     29.64780     0.00000 -0.00000  0.12544 (  0.65870  6.00000)
     -0.00000      0.91970     26.50220    -0.00000 -0.00000  0.03066 (  0.65942  6.00000)
 -----------------------------------------------------------------------------------------
    total drift (improves with k-points):  -0.00000 -0.00000 -6.85779




--------------------------------------------------------------------------------------------------------


  LATTYP: Found a hexagonal cell.
 ALAT       =     3.1859459497
 C/A-ratio  =    15.6939260082
  
  Lattice vectors:
  
 A1 = (   3.1859459497,   0.0000000000,   0.0000000000)
 A2 = (  -1.5929729748,   2.7591101275,   0.0000000000)
 A3 = (   0.0000000000,   0.0000000000,  50.0000000000)


Analysis of symmetry for initial positions (statically):
=====================================================================
 Subroutine PRICEL returns:
 Original cell was already a primitive cell.
 

 Routine SETGRP: Setting up the symmetry group for a 
 hexagonal supercell.


 Subroutine GETGRP returns: Found 12 space group operations
 (whereof  4 operations were pure point group operations)
 out of a pool of 24 trial point group operations.


The static configuration has the point symmetry C_2h.
 The point group associated with its full space group is D_3d.


Analysis of symmetry for dynamics (positions and initial velocities):
=====================================================================
 Subroutine PRICEL returns:
 Original cell was already a primitive cell.
 

 Routine SETGRP: Setting up the symmetry group for a 
 hexagonal supercell.


 Subroutine GETGRP returns: Found 12 space group operations
 (whereof  4 operations were pure point group operations)
 out of a pool of 24 trial point group operations.


The dynamic configuration has the point symmetry C_2h.
 The point group associated with its full space group is D_3d.


 Subroutine INISYM returns: Found 12 space group operations
 (whereof  4 operations are pure point group operations),
 and found     1 'primitive' translations



 MACROSCOPIC STATIC DIELECTRIC TENSOR (including local field effects in DFT)
 ------------------------------------------------------
           4.182635    -0.000000     0.000000
           0.000000     4.182635    -0.000000
           0.000000     0.000000     1.257636
 ------------------------------------------------------



--------------------------------------------------------------------------------------------------------


  LATTYP: Found a hexagonal cell.
 ALAT       =     3.1859459497
 C/A-ratio  =    15.6939260082
  
  Lattice vectors:
  
 A1 = (   3.1859459497,   0.0000000000,   0.0000000000)
 A2 = (  -1.5929729748,   2.7591101275,   0.0000000000)
 A3 = (   0.0000000000,   0.0000000000,  50.0000000000)


Analysis of symmetry for initial positions (statically):
=====================================================================
 Subroutine PRICEL returns:
 Original cell was already a primitive cell.
 

 Routine SETGRP: Setting up the symmetry group for a 
 hexagonal supercell.


 Subroutine GETGRP returns: Found 12 space group operations
 (whereof  4 operations were pure point group operations)
 out of a pool of 24 trial point group operations.


The static configuration has the point symmetry C_2h.
 The point group associated with its full space group is D_3d.


Analysis of symmetry for dynamics (positions and initial velocities):
=====================================================================
 Subroutine PRICEL returns:
 Original cell was already a primitive cell.
 

 Routine SETGRP: Setting up the symmetry group for a 
 hexagonal supercell.


 Subroutine GETGRP returns: Found 12 space group operations
 (whereof  4 operations were pure point group operations)
 out of a pool of 24 trial point group operations.


The dynamic configuration has the point symmetry C_2h.
 The point group associated with its full space group is D_3d.


 Subroutine INISYM returns: Found 12 space group operations
 (whereof  4 operations are pure point group operations),
 and found     1 'primitive' translations



--------------------------------------------------------------------------------------------------------




 MACROSCOPIC STATIC DIELECTRIC TENSOR (including local field effects in DFT)
 ------------------------------------------------------
           4.182635    -0.000000     0.000000
           0.000000     4.182635    -0.000000
           0.000000     0.000000     1.257636
 ------------------------------------------------------


 PIEZOELECTRIC TENSOR  for field in x, y, z        (e  Angst)
          XX          YY          ZZ          XY          YZ          ZX
  --------------------------------------------------------------------------------
  x    -0.00273     0.00372    -0.00037     0.00000     0.00037     0.00000
  y    -0.00448     0.00753     0.00118     0.00000     0.00013     0.00000
  z     0.00024     0.00024     0.00014     0.00000     0.00000     0.00000

 PIEZOELECTRIC TENSOR  for field in x, y, z        (C/m^2)
          XX          YY          ZZ          XY          YZ          ZX
  --------------------------------------------------------------------------------
  x     0.00000     0.00000     0.00000     0.00000     0.00000     0.00000
  y     0.00000     0.00000     0.00000     0.00000     0.00000     0.00000
  z     0.00000     0.00000     0.00000     0.00000     0.00000     0.00000
 
 BORN EFFECTIVE CHARGES (in e, cummulative output)
 -------------------------------------------------
 ion    1
    1    -0.45058    -0.00036     0.00004
    2     0.00000    -0.45140     0.00003
    3    -0.00000     0.00000    -3.59245
 ion    2
    1    -0.45058     0.00036    -0.00004
    2     0.00000    -0.44979    -0.00001
    3     0.00000    -0.00000    -3.59144
 ion    3
    1     0.24111    -0.00142     0.00010
    2     0.00000     0.24155     0.00076
    3     0.00000    -0.00000     0.03907
 ion    4
    1     0.25942    -0.00138    -0.00005
    2     0.00000     0.25984    -0.00051
    3    -0.00000     0.00000     0.13093
 ion    5
    1     0.25942     0.00138     0.00005
    2    -0.00000     0.25900     0.00050
    3     0.00000    -0.00000     0.12544
 ion    6
    1     0.24111     0.00142    -0.00010
    2     0.00000     0.24066    -0.00075
    3    -0.00000    -0.00000     0.03066


--------------------------------------------------------------------------------------------------------


 writing wavefunctions
     LOOP+:  cpu time  760.3414: real time  762.1289
    4ORBIT:  cpu time    0.0000: real time    0.0000
 BZINTS: Fermi energy: -2.023764; 52.000000 electrons
         Band energy:***********;  BLOECHL correction:  0.000000

 total amount of memory used by VASP on root node   134883. kBytes
========================================================================

   base      :      30000. kBytes
   nonl-proj :      88467. kBytes
   fftplans  :       1943. kBytes
   grid      :       7351. kBytes
   one-center:        194. kBytes
   wavefun   :       6928. kBytes
 
  
  
 General timing and accounting informations for this job:
 ========================================================
  
                  Total CPU time used (sec):      762.572
                            User time (sec):      741.747
                          System time (sec):       20.825
                         Elapsed time (sec):      765.740
  
                   Maximum memory used (kb):      393628.
                   Average memory used (kb):           0.
  
                          Minor page faults:      5332175
                          Major page faults:            9
                 Voluntary context switches:         3219
