   3   3   0   0
  0.1590706E+03  0.3319749E-09  0.3319749E-09  0.5000000E-08  0.5000000E-15
  1.000000000000000E-004
  CAR 
 unknown system                          
     11.10420989    -68.35379461  301     -3.86038096      1.00000000
    -68.354  0.0000E+00  0.0000E+00
    -68.089  0.0000E+00  0.0000E+00
    -67.824  0.0000E+00  0.0000E+00
    -67.559  0.0000E+00  0.0000E+00
    -67.294  0.0000E+00  0.0000E+00
    -67.029  0.0000E+00  0.0000E+00
    -66.765  0.0000E+00  0.0000E+00
    -66.500  0.0000E+00  0.0000E+00
    -66.235  0.0000E+00  0.0000E+00
    -65.970  0.0000E+00  0.0000E+00
    -65.705  0.0000E+00  0.0000E+00
    -65.440  0.0000E+00  0.0000E+00
    -65.175  0.0000E+00  0.0000E+00
    -64.911  0.0000E+00  0.0000E+00
    -64.646  0.0000E+00  0.2000E+01
    -64.381  0.0000E+00  0.2000E+01
    -64.116  0.0000E+00  0.2000E+01
    -63.851  0.0000E+00  0.2000E+01
    -63.586  0.0000E+00  0.2000E+01
    -63.321  0.0000E+00  0.2000E+01
    -63.057  0.0000E+00  0.2000E+01
    -62.792  0.0000E+00  0.2000E+01
    -62.527  0.0000E+00  0.2000E+01
    -62.262  0.0000E+00  0.2000E+01
    -61.997  0.0000E+00  0.2000E+01
    -61.732  0.0000E+00  0.2000E+01
    -61.467  0.0000E+00  0.2000E+01
    -61.203  0.0000E+00  0.2000E+01
    -60.938  0.0000E+00  0.2000E+01
    -60.673  0.0000E+00  0.2000E+01
    -60.408  0.0000E+00  0.2000E+01
    -60.143  0.0000E+00  0.2000E+01
    -59.878  0.0000E+00  0.2000E+01
    -59.613  0.0000E+00  0.2000E+01
    -59.349  0.0000E+00  0.2000E+01
    -59.084  0.0000E+00  0.2000E+01
    -58.819  0.0000E+00  0.2000E+01
    -58.554  0.0000E+00  0.2000E+01
    -58.289  0.0000E+00  0.2000E+01
    -58.024  0.0000E+00  0.2000E+01
    -57.759  0.0000E+00  0.2000E+01
    -57.495  0.0000E+00  0.2000E+01
    -57.230  0.0000E+00  0.2000E+01
    -56.965  0.0000E+00  0.2000E+01
    -56.700  0.0000E+00  0.2000E+01
    -56.435  0.0000E+00  0.2000E+01
    -56.170  0.0000E+00  0.2000E+01
    -55.905  0.0000E+00  0.2000E+01
    -55.641  0.0000E+00  0.2000E+01
    -55.376  0.0000E+00  0.2000E+01
    -55.111  0.0000E+00  0.2000E+01
    -54.846  0.0000E+00  0.2000E+01
    -54.581  0.0000E+00  0.2000E+01
    -54.316  0.0000E+00  0.2000E+01
    -54.051  0.0000E+00  0.2000E+01
    -53.786  0.0000E+00  0.2000E+01
    -53.522  0.0000E+00  0.2000E+01
    -53.257  0.0000E+00  0.2000E+01
    -52.992  0.0000E+00  0.2000E+01
    -52.727  0.0000E+00  0.2000E+01
    -52.462  0.0000E+00  0.2000E+01
    -52.197  0.0000E+00  0.2000E+01
    -51.932  0.0000E+00  0.2000E+01
    -51.668  0.0000E+00  0.2000E+01
    -51.403  0.0000E+00  0.2000E+01
    -51.138  0.0000E+00  0.2000E+01
    -50.873  0.0000E+00  0.2000E+01
    -50.608  0.0000E+00  0.2000E+01
    -50.343  0.0000E+00  0.2000E+01
    -50.078  0.0000E+00  0.2000E+01
    -49.814  0.0000E+00  0.2000E+01
    -49.549  0.0000E+00  0.2000E+01
    -49.284  0.0000E+00  0.2000E+01
    -49.019  0.0000E+00  0.2000E+01
    -48.754  0.0000E+00  0.2000E+01
    -48.489  0.0000E+00  0.2000E+01
    -48.224  0.0000E+00  0.2000E+01
    -47.960  0.0000E+00  0.2000E+01
    -47.695  0.0000E+00  0.2000E+01
    -47.430  0.0000E+00  0.2000E+01
    -47.165  0.0000E+00  0.2000E+01
    -46.900  0.0000E+00  0.2000E+01
    -46.635  0.0000E+00  0.2000E+01
    -46.370  0.0000E+00  0.2000E+01
    -46.106  0.0000E+00  0.2000E+01
    -45.841  0.0000E+00  0.2000E+01
    -45.576  0.0000E+00  0.2000E+01
    -45.311  0.0000E+00  0.2000E+01
    -45.046  0.0000E+00  0.2000E+01
    -44.781  0.0000E+00  0.2000E+01
    -44.516  0.0000E+00  0.2000E+01
    -44.252  0.0000E+00  0.2000E+01
    -43.987  0.0000E+00  0.2000E+01
    -43.722  0.0000E+00  0.2000E+01
    -43.457  0.0000E+00  0.2000E+01
    -43.192  0.0000E+00  0.2000E+01
    -42.927  0.0000E+00  0.2000E+01
    -42.662  0.0000E+00  0.2000E+01
    -42.398  0.0000E+00  0.2000E+01
    -42.133  0.0000E+00  0.2000E+01
    -41.868  0.0000E+00  0.2000E+01
    -41.603  0.0000E+00  0.2000E+01
    -41.338  0.0000E+00  0.2000E+01
    -41.073  0.0000E+00  0.2000E+01
    -40.808  0.0000E+00  0.2000E+01
    -40.543  0.0000E+00  0.2000E+01
    -40.279  0.0000E+00  0.2000E+01
    -40.014  0.0000E+00  0.2000E+01
    -39.749  0.0000E+00  0.2000E+01
    -39.484  0.0000E+00  0.2000E+01
    -39.219  0.0000E+00  0.2000E+01
    -38.954  0.5935E+01  0.2004E+01
    -38.689  0.0000E+00  0.8000E+01
    -38.425  0.0000E+00  0.8000E+01
    -38.160  0.0000E+00  0.8000E+01
    -37.895  0.0000E+00  0.8000E+01
    -37.630  0.0000E+00  0.8000E+01
    -37.365  0.0000E+00  0.8000E+01
    -37.100  0.0000E+00  0.8000E+01
    -36.835  0.0000E+00  0.8000E+01
    -36.571  0.0000E+00  0.8000E+01
    -36.306  0.0000E+00  0.8000E+01
    -36.041  0.0000E+00  0.8000E+01
    -35.776  0.0000E+00  0.8000E+01
    -35.511  0.0000E+00  0.8000E+01
    -35.246  0.0000E+00  0.8000E+01
    -34.981  0.0000E+00  0.8000E+01
    -34.717  0.0000E+00  0.8000E+01
    -34.452  0.0000E+00  0.8000E+01
    -34.187  0.0000E+00  0.8000E+01
    -33.922  0.0000E+00  0.8000E+01
    -33.657  0.0000E+00  0.8000E+01
    -33.392  0.0000E+00  0.8000E+01
    -33.127  0.0000E+00  0.8000E+01
    -32.863  0.0000E+00  0.8000E+01
    -32.598  0.0000E+00  0.8000E+01
    -32.333  0.0000E+00  0.8000E+01
    -32.068  0.0000E+00  0.8000E+01
    -31.803  0.0000E+00  0.8000E+01
    -31.538  0.0000E+00  0.8000E+01
    -31.273  0.0000E+00  0.8000E+01
    -31.009  0.0000E+00  0.8000E+01
    -30.744  0.0000E+00  0.8000E+01
    -30.479  0.0000E+00  0.8000E+01
    -30.214  0.0000E+00  0.8000E+01
    -29.949  0.0000E+00  0.8000E+01
    -29.684  0.0000E+00  0.8000E+01
    -29.419  0.0000E+00  0.8000E+01
    -29.155  0.0000E+00  0.8000E+01
    -28.890  0.0000E+00  0.8000E+01
    -28.625  0.0000E+00  0.8000E+01
    -28.360  0.0000E+00  0.8000E+01
    -28.095  0.0000E+00  0.8000E+01
    -27.830  0.0000E+00  0.8000E+01
    -27.565  0.0000E+00  0.8000E+01
    -27.300  0.0000E+00  0.8000E+01
    -27.036  0.0000E+00  0.8000E+01
    -26.771  0.0000E+00  0.8000E+01
    -26.506  0.0000E+00  0.8000E+01
    -26.241  0.0000E+00  0.8000E+01
    -25.976  0.0000E+00  0.8000E+01
    -25.711  0.0000E+00  0.8000E+01
    -25.446  0.0000E+00  0.8000E+01
    -25.182  0.0000E+00  0.8000E+01
    -24.917  0.0000E+00  0.8000E+01
    -24.652  0.0000E+00  0.8000E+01
    -24.387  0.0000E+00  0.8000E+01
    -24.122  0.0000E+00  0.8000E+01
    -23.857  0.0000E+00  0.8000E+01
    -23.592  0.0000E+00  0.8000E+01
    -23.328  0.0000E+00  0.8000E+01
    -23.063  0.0000E+00  0.8000E+01
    -22.798  0.0000E+00  0.8000E+01
    -22.533  0.0000E+00  0.8000E+01
    -22.268  0.0000E+00  0.8000E+01
    -22.003  0.0000E+00  0.8000E+01
    -21.738  0.0000E+00  0.8000E+01
    -21.474  0.0000E+00  0.8000E+01
    -21.209  0.0000E+00  0.8000E+01
    -20.944  0.0000E+00  0.8000E+01
    -20.679  0.0000E+00  0.8000E+01
    -20.414  0.0000E+00  0.8000E+01
    -20.149  0.0000E+00  0.8000E+01
    -19.884  0.0000E+00  0.8000E+01
    -19.620  0.0000E+00  0.8000E+01
    -19.355  0.0000E+00  0.8000E+01
    -19.090  0.0000E+00  0.8000E+01
    -18.825  0.0000E+00  0.8000E+01
    -18.560  0.0000E+00  0.8000E+01
    -18.295  0.0000E+00  0.8000E+01
    -18.030  0.3270E+00  0.8002E+01
    -17.766  0.5818E+00  0.8152E+01
    -17.501  0.6330E+00  0.8313E+01
    -17.236  0.7120E+00  0.8492E+01
    -16.971  0.1876E+01  0.8769E+01
    -16.706  0.2266E+01  0.9307E+01
    -16.441  0.3306E+01  0.1001E+02
    -16.176  0.5166E+01  0.1118E+02
    -15.912  0.0000E+00  0.1200E+02
    -15.647  0.0000E+00  0.1200E+02
    -15.382  0.0000E+00  0.1200E+02
    -15.117  0.0000E+00  0.1200E+02
    -14.852  0.0000E+00  0.1200E+02
    -14.587  0.0000E+00  0.1200E+02
    -14.322  0.0000E+00  0.1200E+02
    -14.057  0.0000E+00  0.1200E+02
    -13.793  0.0000E+00  0.1200E+02
    -13.528  0.0000E+00  0.1200E+02
    -13.263  0.0000E+00  0.1200E+02
    -12.998  0.0000E+00  0.1200E+02
    -12.733  0.0000E+00  0.1200E+02
    -12.468  0.0000E+00  0.1200E+02
    -12.203  0.0000E+00  0.1200E+02
    -11.939  0.0000E+00  0.1200E+02
    -11.674  0.0000E+00  0.1200E+02
    -11.409  0.0000E+00  0.1200E+02
    -11.144  0.0000E+00  0.1200E+02
    -10.879  0.0000E+00  0.1200E+02
    -10.614  0.0000E+00  0.1200E+02
    -10.349  0.0000E+00  0.1200E+02
    -10.085  0.0000E+00  0.1200E+02
     -9.820  0.0000E+00  0.1200E+02
     -9.555  0.0000E+00  0.1200E+02
     -9.290  0.9970E+00  0.1216E+02
     -9.025  0.1667E+01  0.1255E+02
     -8.760  0.3436E+01  0.1322E+02
     -8.495  0.5213E+01  0.1441E+02
     -8.231  0.9151E+00  0.1487E+02
     -7.966  0.7053E+00  0.1508E+02
     -7.701  0.1691E+01  0.1530E+02
     -7.436  0.3135E+01  0.1688E+02
     -7.171  0.1277E+01  0.1725E+02
     -6.906  0.3250E+01  0.1780E+02
     -6.641  0.4010E+01  0.1888E+02
     -6.377  0.1857E+01  0.1952E+02
     -6.112  0.1739E+01  0.1995E+02
     -5.847  0.2974E+01  0.2051E+02
     -5.582  0.4604E+01  0.2152E+02
     -5.317  0.1423E+01  0.2263E+02
     -5.052  0.2093E+01  0.2323E+02
     -4.787  0.3039E+01  0.2392E+02
     -4.523  0.3174E+01  0.2471E+02
     -4.258  0.2793E+01  0.2547E+02
     -3.993  0.7408E+00  0.2594E+02
     -3.728  0.0000E+00  0.2600E+02
     -3.463  0.0000E+00  0.2600E+02
     -3.198  0.0000E+00  0.2600E+02
     -2.933  0.0000E+00  0.2600E+02
     -2.669  0.0000E+00  0.2600E+02
     -2.404  0.2773E+00  0.2600E+02
     -2.139  0.4148E+01  0.2648E+02
     -1.874  0.1161E+01  0.2778E+02
     -1.609  0.6800E+01  0.2910E+02
     -1.344  0.2802E+01  0.3012E+02
     -1.079  0.2703E+01  0.3103E+02
     -0.814  0.1377E+01  0.3165E+02
     -0.550  0.1533E+01  0.3202E+02
     -0.285  0.8786E+00  0.3240E+02
     -0.020  0.5536E+01  0.3296E+02
      0.245  0.1211E+01  0.3384E+02
      0.510  0.0000E+00  0.3400E+02
      0.775  0.3335E-01  0.3400E+02
      1.040  0.3056E+00  0.3406E+02
      1.304  0.7640E+00  0.3424E+02
      1.569  0.1732E+01  0.3454E+02
      1.834  0.2843E+01  0.3520E+02
      2.099  0.3524E+01  0.3609E+02
      2.364  0.4345E+01  0.3712E+02
      2.629  0.4651E+01  0.3840E+02
      2.894  0.4315E+01  0.3959E+02
      3.158  0.4628E+01  0.4078E+02
      3.423  0.5390E+01  0.4217E+02
      3.688  0.5850E+01  0.4382E+02
      3.953  0.5561E+01  0.4535E+02
      4.218  0.6226E+01  0.4693E+02
      4.483  0.4791E+01  0.4834E+02
      4.748  0.4787E+01  0.4957E+02
      5.012  0.4183E+01  0.5083E+02
      5.277  0.4105E+01  0.5195E+02
      5.542  0.3743E+01  0.5302E+02
      5.807  0.3183E+01  0.5400E+02
      6.072  0.5722E+01  0.5482E+02
      6.337  0.1295E+01  0.5527E+02
      6.602  0.1771E+01  0.5563E+02
      6.866  0.4762E+00  0.5587E+02
      7.131  0.2075E+00  0.5596E+02
      7.396  0.4955E-01  0.5600E+02
      7.661  0.0000E+00  0.5600E+02
      7.926  0.0000E+00  0.5600E+02
      8.191  0.0000E+00  0.5600E+02
      8.456  0.0000E+00  0.5600E+02
      8.720  0.0000E+00  0.5600E+02
      8.985  0.0000E+00  0.5600E+02
      9.250  0.0000E+00  0.5600E+02
      9.515  0.0000E+00  0.5600E+02
      9.780  0.0000E+00  0.5600E+02
     10.045  0.0000E+00  0.5600E+02
     10.310  0.0000E+00  0.5600E+02
     10.574  0.0000E+00  0.5600E+02
     10.839  0.0000E+00  0.5600E+02
     11.104  0.0000E+00  0.5600E+02
