       N       E                     dE             d eps       ncg     rms          rms(c)
DAV:   1     0.105774871609E+03    0.10577E+03   -0.10314E+04  3108   0.467E+02
DAV:   2    -0.154418490598E+02   -0.12122E+03   -0.11549E+03  2380   0.141E+02
DAV:   3    -0.237496523956E+02   -0.83078E+01   -0.83078E+01  4004   0.422E+01
DAV:   4    -0.237720483764E+02   -0.22396E-01   -0.22396E-01  2184   0.176E+00
DAV:   5    -0.237723647857E+02   -0.31641E-03   -0.31641E-03  3836   0.221E-01    0.972E+00
DAV:   6    -0.219129441243E+02    0.18594E+01   -0.50700E+01  3220   0.241E+01    0.614E+00
DAV:   7    -0.208885068861E+02    0.10244E+01   -0.15047E+01  3360   0.126E+01    0.284E+00
DAV:   8    -0.208183789822E+02    0.70128E-01   -0.20877E+00  3080   0.571E+00    0.128E+00
DAV:   9    -0.207702186176E+02    0.48160E-01   -0.40955E-01  3976   0.256E+00    0.171E-01
DAV:  10    -0.207693695466E+02    0.84907E-03   -0.49439E-03  3332   0.320E-01    0.487E-02
DAV:  11    -0.207691855709E+02    0.18398E-03   -0.62144E-04  3808   0.853E-02    0.279E-02
DAV:  12    -0.207690601907E+02    0.12538E-03   -0.94896E-05  3500   0.264E-02    0.158E-02
DAV:  13    -0.207690647113E+02   -0.45205E-05   -0.89014E-05  3192   0.275E-02    0.738E-03
DAV:  14    -0.207691706945E+02   -0.10598E-03   -0.42502E-05  2604   0.171E-02    0.471E-03
DAV:  15    -0.207692502814E+02   -0.79587E-04   -0.71660E-06  2548   0.955E-03    0.230E-03
DAV:  16    -0.207693257313E+02   -0.75450E-04   -0.52859E-06  2408   0.486E-03    0.118E-03
DAV:  17    -0.207693405976E+02   -0.14866E-04   -0.17676E-07  2884   0.154E-03    0.662E-04
DAV:  18    -0.207693613187E+02   -0.20721E-04   -0.86254E-07  2464   0.158E-03    0.305E-04
DAV:  19    -0.207693637203E+02   -0.24017E-05   -0.17524E-08  3052   0.342E-04    0.219E-04
DAV:  20    -0.207693693205E+02   -0.56002E-05   -0.22244E-07  2352   0.847E-04    0.940E-05
DAV:  21    -0.207693706185E+02   -0.12980E-05   -0.27793E-08  2912   0.323E-04    0.560E-05
DAV:  22    -0.207693710558E+02   -0.43727E-06   -0.47102E-09  2464   0.173E-04    0.243E-05
DAV:  23    -0.207693713355E+02   -0.27967E-06   -0.12999E-09  2520   0.127E-04    0.134E-05
DAV:  24    -0.207693713849E+02   -0.49416E-07   -0.32412E-11  2856   0.365E-05    0.706E-06
DAV:  25    -0.207693714643E+02   -0.79432E-07   -0.10271E-10  2324   0.694E-05    0.268E-06
DAV:  26    -0.207693714760E+02   -0.11722E-07    0.36923E-11  2828   0.177E-05    0.176E-06
DAV:  27    -0.207693714804E+02   -0.43951E-08    0.30811E-11  2688   0.135E-05
   1 F= -.21397287E+02 E0= -.21397287E+02  d E =0.000000E+00
 Linear response reoptimize wavefunctions
DAV:   1    -0.207693714809E+02    0.62792E+00    0.30441E-11  2828   0.706E-06
DAV:   2    -0.207693714809E+02    0.00000E+00    0.29897E-11  2912   0.744E-07
 Linear response G [H, r] |phi>, progress :
  Direction:   1
       N       E                     dE             d eps       ncg     rms
RMM:   1    -0.106189179179E+03   -0.10619E+03   -0.28252E+01  3454   0.312E+02
RMM:   2    -0.110391626202E+03   -0.42024E+01   -0.93258E+01  4187   0.389E+01
RMM:   3    -0.112364599835E+03   -0.19730E+01   -0.57551E+00  4287   0.991E+00
RMM:   4    -0.112468145255E+03   -0.10355E+00   -0.26890E-01  4547   0.221E+00
RMM:   5    -0.112474645399E+03   -0.65001E-02   -0.29172E-02  4593   0.633E-01
RMM:   6    -0.112475138157E+03   -0.49276E-03   -0.45220E-03  4492   0.198E-01
RMM:   7    -0.112475156063E+03   -0.17906E-04   -0.12008E-03  4545   0.667E-02
RMM:   8    -0.112475126296E+03    0.29768E-04   -0.30422E-04  4454   0.233E-02
RMM:   9    -0.112475116470E+03    0.98257E-05   -0.11667E-04  4311   0.851E-03
RMM:  10    -0.112475110919E+03    0.55511E-05   -0.41565E-05  4275   0.317E-03
RMM:  11    -0.112475109930E+03    0.98873E-06   -0.27530E-05  4212   0.131E-03
RMM:  12    -0.112475108346E+03    0.15843E-05   -0.10286E-05  4119   0.644E-04
RMM:  13    -0.112475108053E+03    0.29330E-06   -0.69651E-06  3895   0.397E-04
RMM:  14    -0.112475108169E+03   -0.11595E-06   -0.79597E-06  3684   0.303E-04
RMM:  15    -0.112475107766E+03    0.40289E-06   -0.38700E-06  3483   0.268E-04
RMM:  16    -0.112475108160E+03   -0.39399E-06   -0.77840E-06  3355   0.254E-04
RMM:  17    -0.112475107740E+03    0.42007E-06   -0.35691E-06  3252   0.251E-04
 Linear response G [H, r] |phi>, progress :
  Direction:   2
       N       E                     dE             d eps       ncg     rms
RMM:   1    -0.103432510376E+03   -0.10343E+03   -0.33152E+01  3542   0.314E+02
RMM:   2    -0.117126078010E+03   -0.13694E+02   -0.10499E+02  4148   0.406E+01
RMM:   3    -0.119281384800E+03   -0.21553E+01   -0.63810E+00  4290   0.101E+01
RMM:   4    -0.119407287552E+03   -0.12590E+00   -0.25897E-01  4512   0.215E+00
RMM:   5    -0.119413698605E+03   -0.64111E-02   -0.28927E-02  4564   0.632E-01
RMM:   6    -0.119414455677E+03   -0.75707E-03   -0.54744E-03  4516   0.191E-01
RMM:   7    -0.119414373387E+03    0.82291E-04   -0.15643E-03  4567   0.642E-02
RMM:   8    -0.119414380047E+03   -0.66599E-05   -0.11969E-03  4383   0.221E-02
RMM:   9    -0.119414287676E+03    0.92370E-04   -0.20996E-04  4292   0.768E-03
RMM:  10    -0.119414285485E+03    0.21911E-05   -0.17977E-04  4240   0.259E-03
RMM:  11    -0.119414270272E+03    0.15213E-04   -0.27094E-05  4183   0.968E-04
RMM:  12    -0.119414269995E+03    0.27706E-06   -0.24465E-05  4110   0.391E-04
RMM:  13    -0.119414268066E+03    0.19293E-05   -0.53351E-06  3841   0.182E-04
RMM:  14    -0.119414267868E+03    0.19796E-06   -0.34237E-06  3603   0.107E-04
RMM:  15    -0.119414267656E+03    0.21138E-06   -0.13423E-06  3417   0.809E-05
RMM:  16    -0.119414267599E+03    0.56942E-07   -0.78616E-07  3283   0.726E-05
RMM:  17    -0.119414267623E+03   -0.23651E-07   -0.10279E-06  3200   0.703E-05
RMM:  18    -0.119414267608E+03    0.14569E-07   -0.88367E-07  3111   0.698E-05
 Linear response G [H, r] |phi>, progress :
  Direction:   3
       N       E                     dE             d eps       ncg     rms
RMM:   1    -0.103230776525E+03   -0.10323E+03    0.71009E+01  3842   0.312E+02
RMM:   2    -0.114352212979E+03   -0.11121E+02   -0.75018E+01  4148   0.376E+01
RMM:   3    -0.115769013145E+03   -0.14168E+01   -0.41795E+00  4243   0.994E+00
RMM:   4    -0.115845173061E+03   -0.76160E-01   -0.23919E-01  4483   0.219E+00
RMM:   5    -0.115850016900E+03   -0.48438E-02   -0.27132E-02  4500   0.585E-01
RMM:   6    -0.115850300335E+03   -0.28344E-03   -0.25140E-03  4426   0.163E-01
RMM:   7    -0.115850352274E+03   -0.51939E-04   -0.35179E-04  4446   0.490E-02
RMM:   8    -0.115850355903E+03   -0.36292E-05   -0.48804E-05  4384   0.151E-02
RMM:   9    -0.115850356180E+03   -0.27674E-06   -0.68530E-06  4200   0.497E-03
RMM:  10    -0.115850356370E+03   -0.19009E-06   -0.24425E-06  4154   0.173E-03
RMM:  11    -0.115850356297E+03    0.73400E-07   -0.47368E-07  4056   0.611E-04
RMM:  12    -0.115850356292E+03    0.44936E-08   -0.19410E-07  3907   0.272E-04
RMM:  13    -0.115850356287E+03    0.56895E-08   -0.75936E-08  3657   0.168E-04
 Linear response to external field (no local field effect), progress :
  Direction:   1
       N       E                     dE             d eps       ncg     rms          rms(c)
RMM:   1    -0.215943486231E+01   -0.21594E+01   -0.14264E+01  5218   0.568E+00
RMM:   2    -0.275962672861E+01   -0.60019E+00    0.14960E-01  3936   0.139E+00
RMM:   3    -0.279121125529E+01   -0.31585E-01   -0.20922E-02  4343   0.324E-01
RMM:   4    -0.279181567001E+01   -0.60441E-03   -0.94490E-04  4308   0.774E-02
RMM:   5    -0.279186808025E+01   -0.52410E-04   -0.17180E-04  4469   0.245E-02
RMM:   6    -0.279187258793E+01   -0.45077E-05   -0.14869E-05  4411   0.784E-03
RMM:   7    -0.279187338876E+01   -0.80083E-06   -0.25192E-06  4202   0.245E-03
RMM:   8    -0.279187343126E+01   -0.42501E-07   -0.18650E-07  4103   0.830E-04
RMM:   9    -0.279187344965E+01   -0.18389E-07   -0.62086E-08  3903   0.278E-04
RMM:  10    -0.279187345033E+01   -0.67499E-09   -0.60240E-09  3525   0.109E-04
 Linear response to external field (no local field effect), progress :
  Direction:   2
       N       E                     dE             d eps       ncg     rms          rms(c)
RMM:   1    -0.224585064974E+01   -0.22459E+01   -0.14517E+01  5182   0.576E+00
RMM:   2    -0.278674412299E+01   -0.54089E+00    0.15441E-01  3926   0.143E+00
RMM:   3    -0.281862195768E+01   -0.31878E-01   -0.20260E-02  4327   0.337E-01
RMM:   4    -0.281938254588E+01   -0.76059E-03   -0.10650E-03  4302   0.807E-02
RMM:   5    -0.281943215346E+01   -0.49608E-04   -0.15151E-04  4404   0.260E-02
RMM:   6    -0.281943911786E+01   -0.69644E-05   -0.14119E-05  4420   0.813E-03
RMM:   7    -0.281943993080E+01   -0.81294E-06   -0.20306E-06  4166   0.260E-03
RMM:   8    -0.281944002388E+01   -0.93083E-07   -0.10367E-07  4064   0.891E-04
RMM:   9    -0.281944004231E+01   -0.18430E-07   -0.77461E-09  3881   0.305E-04
RMM:  10    -0.281944004600E+01   -0.36845E-08    0.88131E-09  3535   0.114E-04
 Linear response to external field (no local field effect), progress :
  Direction:   3
       N       E                     dE             d eps       ncg     rms          rms(c)
RMM:   1    -0.126832101857E+01   -0.12683E+01   -0.63571E+00  5119   0.512E+00
RMM:   2    -0.139487165040E+01   -0.12655E+00    0.45209E-03  3809   0.112E+00
RMM:   3    -0.140198953285E+01   -0.71179E-02   -0.67615E-03  4308   0.246E-01
RMM:   4    -0.140226558978E+01   -0.27606E-03   -0.25843E-04  4256   0.580E-02
RMM:   5    -0.140228392793E+01   -0.18338E-04   -0.51308E-05  4428   0.171E-02
RMM:   6    -0.140228552521E+01   -0.15973E-05   -0.23775E-06  4314   0.471E-03
RMM:   7    -0.140228567572E+01   -0.15051E-06   -0.30478E-07  4068   0.147E-03
RMM:   8    -0.140228569011E+01   -0.14389E-07   -0.49412E-09  3896   0.466E-04
RMM:   9    -0.140228569257E+01   -0.24591E-08    0.45728E-09  3740   0.153E-04
 Linear response to external field, progress :
  Direction:   1
       N       E                     dE             d eps       ncg     rms          rms(c)
RMM:   1    -0.220842830781E+01   -0.22084E+01   -0.14448E+01 22942   0.569E+00
RMM:   2    -0.277158765649E+01   -0.56316E+00    0.16734E-01 17505   0.140E+00    0.350E+00
RMM:   3    -0.270468989520E+01    0.66898E-01   -0.64770E-02 17558   0.171E+00    0.186E+00
RMM:   4    -0.277277314318E+01   -0.68083E-01   -0.78658E-02 17543   0.163E+00    0.303E-01
RMM:   5    -0.279417838295E+01   -0.21405E-01   -0.50690E-03 18247   0.430E-01    0.528E-02
RMM:   6    -0.279636050834E+01   -0.21821E-02    0.10017E-04 18849   0.914E-02    0.232E-02
RMM:   7    -0.279726108348E+01   -0.90058E-03   -0.46819E-06 19005   0.354E-02    0.928E-03
RMM:   8    -0.279741278473E+01   -0.15170E-03   -0.40754E-05 19347   0.115E-02    0.428E-03
RMM:   9    -0.279758410636E+01   -0.17132E-03   -0.12885E-05 18198   0.772E-03    0.174E-03
RMM:  10    -0.279768088683E+01   -0.96780E-04    0.84362E-06 18762   0.268E-03    0.417E-04
RMM:  11    -0.279769972892E+01   -0.18842E-04    0.10174E-07 19330   0.884E-04    0.244E-04
RMM:  12    -0.279770937430E+01   -0.96454E-05   -0.38974E-07 18813   0.429E-04    0.358E-05
RMM:  13    -0.279770877239E+01    0.60191E-06    0.60638E-07 19674   0.124E-04    0.230E-05
RMM:  14    -0.279770878790E+01   -0.15508E-07   -0.30718E-08 16031   0.446E-05    0.354E-06
 Linear response to external field, progress :
  Direction:   2
       N       E                     dE             d eps       ncg     rms          rms(c)
RMM:   1    -0.221382466736E+01   -0.22138E+01   -0.14502E+01 12765   0.569E+00
RMM:   2    -0.277211593679E+01   -0.55829E+00    0.16263E-01  9748   0.140E+00    0.350E+00
RMM:   3    -0.270562405665E+01    0.66492E-01   -0.74192E-02  9800   0.171E+00    0.185E+00
RMM:   4    -0.276496145398E+01   -0.59337E-01   -0.12029E-03  9735   0.163E+00    0.302E-01
RMM:   5    -0.279463845567E+01   -0.29677E-01   -0.79406E-03 10169   0.427E-01    0.492E-02
RMM:   6    -0.279638085948E+01   -0.17424E-02   -0.59949E-04 10524   0.879E-02    0.255E-02
RMM:   7    -0.279694551001E+01   -0.56465E-03    0.12543E-05 10537   0.352E-02    0.143E-02
RMM:   8    -0.279737359594E+01   -0.42809E-03   -0.15536E-05 10191   0.155E-02    0.403E-03
RMM:   9    -0.279758568614E+01   -0.21209E-03    0.57928E-06 10418   0.696E-03    0.145E-03
RMM:  10    -0.279766099682E+01   -0.75311E-04   -0.38806E-06 10641   0.214E-03    0.472E-04
RMM:  11    -0.279768401784E+01   -0.23021E-04   -0.62290E-07 10595   0.972E-04    0.241E-04
RMM:  12    -0.279769089751E+01   -0.68797E-05    0.10722E-06 10534   0.406E-04    0.361E-05
RMM:  13    -0.279769084861E+01    0.48907E-07   -0.35049E-07 10835   0.110E-04    0.180E-05
RMM:  14    -0.279769073495E+01    0.11366E-06   -0.34508E-08  8575   0.375E-05    0.357E-06
 Linear response to external field, progress :
  Direction:   3
       N       E                     dE             d eps       ncg     rms          rms(c)
RMM:   1    -0.126832101857E+01   -0.12683E+01   -0.63571E+00  5119   0.512E+00
RMM:   2    -0.139487165040E+01   -0.12655E+00    0.45209E-03  3809   0.112E+00    0.299E+00
RMM:   3    -0.357896080624E+00    0.10370E+01   -0.18092E+00  3788   0.299E+00    0.183E+00
RMM:   4    -0.198329396394E+00    0.15957E+00   -0.11466E-01  3760   0.101E+00    0.538E-01
RMM:   5    -0.173712661665E+00    0.24617E-01   -0.41984E-02  3712   0.620E-01    0.146E-01
RMM:   6    -0.171402109231E+00    0.23106E-02   -0.26390E-03  3866   0.140E-01    0.112E-01
RMM:   7    -0.169553849033E+00    0.18483E-02   -0.18833E-03  3595   0.956E-02    0.346E-02
RMM:   8    -0.169145177465E+00    0.40867E-03   -0.82309E-04  3476   0.613E-02    0.163E-02
RMM:   9    -0.169159508674E+00   -0.14331E-04   -0.29549E-04  3569   0.251E-02    0.954E-03
RMM:  10    -0.169426179158E+00   -0.26667E-03   -0.31787E-04  3380   0.254E-02    0.498E-03
RMM:  11    -0.169601796750E+00   -0.17562E-03   -0.72053E-05  3656   0.149E-02    0.284E-03
RMM:  12    -0.169689209786E+00   -0.87413E-04   -0.52948E-05  3644   0.903E-03    0.139E-03
RMM:  13    -0.169711443781E+00   -0.22234E-04   -0.20623E-05  3771   0.513E-03    0.706E-04
RMM:  14    -0.169708199636E+00    0.32441E-05   -0.52937E-06  3980   0.229E-03    0.549E-04
RMM:  15    -0.169702008722E+00    0.61909E-05   -0.16113E-06  3929   0.148E-03    0.343E-04
RMM:  16    -0.169694984888E+00    0.70238E-05   -0.11090E-06  3822   0.166E-03    0.179E-04
RMM:  17    -0.169690446853E+00    0.45380E-05    0.47252E-07  3831   0.148E-03    0.807E-05
RMM:  18    -0.169690098245E+00    0.34861E-06    0.69155E-07  3871   0.744E-04    0.500E-05
RMM:  19    -0.169690921351E+00   -0.82311E-06   -0.27167E-07  3572   0.518E-04    0.228E-05
RMM:  20    -0.169691113667E+00   -0.19232E-06   -0.20063E-07  3649   0.180E-04    0.153E-05
RMM:  21    -0.169691001414E+00    0.11225E-06    0.21888E-07  3668   0.107E-04    0.678E-06
