 vasp.5.4.1 24Jun15 (build Apr 13 2016 13:07:19) complex                        
  
 executed on           IFC91_ompi date 2019.09.13  18:44:36
 running on   28 total cores
 distrk:  each k-point on   28 cores,    1 groups
 distr:  one band on NCORES_PER_BAND=   1 cores,   28 groups


--------------------------------------------------------------------------------------------------------


 INCAR:
 POTCAR:    PAW_PBE Mo_sv_GW 05Dec2013            
 POTCAR:    PAW_PBE Se_GW 20Mar2012               

 ----------------------------------------------------------------------------- 
|                                                                             |
|           W    W    AA    RRRRR   N    N  II  N    N   GGGG   !!!           |
|           W    W   A  A   R    R  NN   N  II  NN   N  G    G  !!!           |
|           W    W  A    A  R    R  N N  N  II  N N  N  G       !!!           |
|           W WW W  AAAAAA  RRRRR   N  N N  II  N  N N  G  GGG   !            |
|           WW  WW  A    A  R   R   N   NN  II  N   NN  G    G                |
|           W    W  A    A  R    R  N    N  II  N    N   GGGG   !!!           |
|                                                                             |
|      For optimal performance we recommend to set                            |
|        NCORE= 4 - approx SQRT( number of cores)                             |
|      NCORE specifies how many cores store one orbital (NPAR=cpu/NCORE).     |
|      This setting can  greatly improve the performance of VASP for DFT.     |
|      The default, NPAR=number of cores might be grossly inefficient         |
|      on modern multi-core architectures or massively parallel machines.     |
|      Do your own testing !!!!                                               |
|      Unfortunately you need to use the default for GW and RPA calculations. |
|      (for HF NCORE is supported but not extensively tested yet)             |
|                                                                             |
 ----------------------------------------------------------------------------- 

 POTCAR:    PAW_PBE Mo_sv_GW 05Dec2013            
   VRHFIN =Mo: 4s4p5s4d                                                         
   LEXCH  = PE                                                                  
   EATOM  =  1861.5185 eV,  136.8178 Ry                                         
                                                                                
   TITEL  = PAW_PBE Mo_sv_GW 05Dec2013                                          
   LULTRA =        F    use ultrasoft PP ?                                      
   IUNSCR =        1    unscreen: 0-lin 1-nonlin 2-no                           
   RPACOR =    2.000    partial core radius                                     
   POMASS =   95.940; ZVAL   =   14.000    mass and valenz                      
   RCORE  =    2.100    outmost cutoff radius                                   
   RWIGS  =    2.100; RWIGS  =    1.111    wigner-seitz radius (au A)           
   ENMAX  =  344.914; ENMIN  =  258.686 eV                                      
   RCLOC  =    1.508    cutoff for local pot                                    
   LCOR   =        T    correct aug charges                                     
   LPAW   =        T    paw PP                                                  
   EAUG   =  964.741                                                            
   DEXC   =    0.000                                                            
   RMAX   =    2.149    core radius for proj-oper                               
   RAUG   =    1.300    factor for augmentation sphere                          
   RDEP   =    2.179    radius for radial grids                                 
   RDEPT  =    1.677    core radius for aug-charge                              
                                                                                
   Atomic configuration                                                         
   12 entries                                                                   
     n  l   j            E        occ.                                          
     1  0  0.50    -19816.9363   2.0000                                         
     2  0  0.50     -2796.7578   2.0000                                         
     2  1  1.50     -2499.7842   6.0000                                         
     3  0  0.50      -474.2095   2.0000                                         
     3  1  1.50      -376.9135   6.0000                                         
     3  2  2.50      -218.6898  10.0000                                         
     4  0  0.50       -62.1983   2.0000                                         
     4  0  0.50       -66.6685   0.0000                                         
     4  1  1.50       -36.4414   6.0000                                         
     4  1  1.50       -40.8175   0.0000                                         
     4  2  2.50        -2.3086   6.0000                                         
     4  3  2.50        -1.3606   0.0000                                         
   Description                                                                  
     l       E           TYP  RCUT    TYP  RCUT                                 
     0    -62.1983072     23  1.950                                             
     0     27.2116520     23  1.950                                             
     0    149.6640860     23  1.950                                             
     1    -36.4413666     23  1.800                                             
     1    -40.8174780     23  1.800                                             
     1     54.4233040     23  1.800                                             
     2     -2.3085597     23  2.000                                             
     2     -6.8029130     23  2.000                                             
     2    136.0582600     23  2.000                                             
     3     13.6058260     23  2.100                                             
     3     81.6349560     23  2.100                                             
  local pseudopotential read in
  partial core-charges read in
  partial kinetic energy density read in
  kinetic energy density of atom read in
  atomic valenz-charges read in
  non local Contribution for L=           0  read in
    real space projection operators read in
  non local Contribution for L=           0  read in
    real space projection operators read in
  non local Contribution for L=           0  read in
    real space projection operators read in
  non local Contribution for L=           1  read in
    real space projection operators read in
  non local Contribution for L=           1  read in
    real space projection operators read in
  non local Contribution for L=           1  read in
    real space projection operators read in
  non local Contribution for L=           2  read in
    real space projection operators read in
  non local Contribution for L=           2  read in
    real space projection operators read in
  non local Contribution for L=           2  read in
    real space projection operators read in
  non local Contribution for L=           3  read in
    real space projection operators read in
  non local Contribution for L=           3  read in
    real space projection operators read in
    PAW grid and wavefunctions read in
 
   number of l-projection  operators is LMAX  =          11
   number of lm-projection operators is LMMAX =          41
 
 POTCAR:    PAW_PBE Se_GW 20Mar2012               
   VRHFIN =Se: s2p4                                                             
   LEXCH  = PE                                                                  
   EATOM  =   257.1286 eV,   18.8984 Ry                                         
                                                                                
   TITEL  = PAW_PBE Se_GW 20Mar2012                                             
   LULTRA =        F    use ultrasoft PP ?                                      
   IUNSCR =        1    unscreen: 0-lin 1-nonlin 2-no                           
   RPACOR =    1.900    partial core radius                                     
   POMASS =   78.960; ZVAL   =    6.000    mass and valenz                      
   RCORE  =    2.100    outmost cutoff radius                                   
   RWIGS  =    2.200; RWIGS  =    1.164    wigner-seitz radius (au A)           
   ENMAX  =  211.555; ENMIN  =  158.666 eV                                      
   ICORE  =        3    local potential                                         
   LCOR   =        T    correct aug charges                                     
   LPAW   =        T    paw PP                                                  
   EAUG   =  446.842                                                            
   DEXC   =    0.000                                                            
   RMAX   =    2.147    core radius for proj-oper                               
   RAUG   =    1.300    factor for augmentation sphere                          
   RDEP   =    2.177    radius for radial grids                                 
   RDEPT  =    1.928    core radius for aug-charge                              
                                                                                
   Atomic configuration                                                         
   10 entries                                                                   
     n  l   j            E        occ.                                          
     1  0  0.50    -12503.4788   2.0000                                         
     2  0  0.50     -1606.9547   2.0000                                         
     2  1  1.50     -1413.3140   6.0000                                         
     3  0  0.50      -213.4885   2.0000                                         
     3  1  1.50      -152.9538   6.0000                                         
     3  2  2.50       -53.1221  10.0000                                         
     4  0  0.50       -17.2865   2.0000                                         
     4  1  0.50        -6.5110   4.0000                                         
     4  2  2.50        -6.8029   0.0000                                         
     4  3  2.50        -6.8029   0.0000                                         
   Description                                                                  
     l       E           TYP  RCUT    TYP  RCUT                                 
     0    -17.2865391     23  2.100                                             
     0     68.0291300     23  2.100                                             
     1     -6.5110285     23  2.100                                             
     1     81.6349560     23  2.100                                             
     2     -6.8029130     23  2.100                                             
     3     -1.3605826      7  2.100                                             
  local pseudopotential read in
  partial core-charges read in
  partial kinetic energy density read in
  kinetic energy density of atom read in
  atomic valenz-charges read in
  non local Contribution for L=           0  read in
    real space projection operators read in
  non local Contribution for L=           0  read in
    real space projection operators read in
  non local Contribution for L=           1  read in
    real space projection operators read in
  non local Contribution for L=           1  read in
    real space projection operators read in
  non local Contribution for L=           2  read in
    real space projection operators read in
    PAW grid and wavefunctions read in
 
   number of l-projection  operators is LMAX  =           5
   number of lm-projection operators is LMMAX =          13
 
  PAW_PBE Mo_sv_GW 05Dec2013            :
 energy of atom  1       EATOM=-1861.5185
 kinetic energy error for atom=    0.1105 (will be added to EATOM!!)
  PAW_PBE Se_GW 20Mar2012               :
 energy of atom  2       EATOM= -257.1286
 kinetic energy error for atom=    0.0034 (will be added to EATOM!!)
 
 
 POSCAR: Mo Se                                   
  positions in cartesian coordinates
  No initial velocities read in
 exchange correlation table for  LEXCH =        8
   RHO(1)=    0.500       N(1)  =     2000
   RHO(2)=  100.500       N(2)  =     4000
 


--------------------------------------------------------------------------------------------------------


 ion  position               nearest neighbor table
   1  0.167  0.333  0.500-   2 2.54   3 2.54   2 2.54   3 2.54   2 2.54   3 2.54
   2  0.833  0.667  0.533-   1 2.54   1 2.54   1 2.54
   3  0.833  0.667  0.467-   1 2.54   1 2.54   1 2.54
 
  LATTYP: Found a hexagonal cell.
 ALAT       =     3.3197487879
 C/A-ratio  =    15.0613806029
  
  Lattice vectors:
  
 A1 = (   3.3197487879,   0.0000000000,   0.0000000000)
 A2 = (  -1.6598743939,   2.8749867845,   0.0000000000)
 A3 = (   0.0000000000,   0.0000000000,  50.0000000000)


Analysis of symmetry for initial positions (statically):
=====================================================================
 Subroutine PRICEL returns:
 Original cell was already a primitive cell.
 

 Routine SETGRP: Setting up the symmetry group for a 
 hexagonal supercell.


 Subroutine GETGRP returns: Found 12 space group operations
 (whereof  4 operations were pure point group operations)
 out of a pool of 24 trial point group operations.


The static configuration has the point symmetry C_2v.
 The point group associated with its full space group is D_3h.


Analysis of symmetry for dynamics (positions and initial velocities):
=====================================================================
 Subroutine PRICEL returns:
 Original cell was already a primitive cell.
 

 Routine SETGRP: Setting up the symmetry group for a 
 hexagonal supercell.


 Subroutine GETGRP returns: Found 12 space group operations
 (whereof  4 operations were pure point group operations)
 out of a pool of 24 trial point group operations.


The dynamic configuration has the point symmetry C_2v.
 The point group associated with its full space group is D_3h.


 Subroutine INISYM returns: Found 12 space group operations
 (whereof  4 operations are pure point group operations),
 and found     1 'primitive' translations

 
 
 KPOINTS: KPOINTS created by Atomic Simulation Env

Automatic generation of k-mesh.
Space group operators:
 irot       det(A)        alpha          n_x          n_y          n_z        tau_x        tau_y        tau_z
    1     1.000000     0.000000     1.000000     0.000000     0.000000     0.000000     0.000000     0.000000
    2    -1.000000   180.000000     0.000000     0.000000     1.000000     0.000000     0.000000     0.000000
    3    -1.000000   180.000000     1.000000     0.000000     0.000000     0.000000     0.000000     0.000000
    4     1.000000   180.000000     0.000000     1.000000     0.000000     0.000000     0.000000     0.000000
    5    -1.000000    60.000000     0.000000     0.000000    -1.000000     0.000000     0.500000     0.000000
    6     1.000000   120.000000     0.000000     0.000000    -1.000000     0.500000     0.500000     0.000000
    7     1.000000   120.000000     0.000000     0.000000     1.000000     0.000000     0.500000     0.000000
    8    -1.000000    60.000000     0.000000     0.000000     1.000000     0.500000     0.500000     0.000000
    9     1.000000   180.000000     0.866025    -0.500000     0.000000     0.500000     0.500000     0.000000
   10    -1.000000   180.000000     0.500000    -0.866025     0.000000     0.000000     0.500000     0.000000
   11    -1.000000   180.000000    -0.500000    -0.866025     0.000000     0.500000     0.500000     0.000000
   12     1.000000   180.000000     0.866025     0.500000     0.000000     0.000000     0.500000     0.000000
 
 Subroutine IBZKPT returns following result:
 ===========================================
 
 Found     37 irreducible k-points:
 
 Following reciprocal coordinates:
            Coordinates               Weight
  0.000000  0.000000  0.000000      1.000000
  0.055556  0.000000  0.000000      6.000000
  0.111111  0.000000  0.000000      6.000000
  0.166667  0.000000  0.000000      6.000000
  0.222222  0.000000  0.000000      6.000000
  0.277778  0.000000  0.000000      6.000000
  0.333333  0.000000  0.000000      6.000000
  0.388889  0.000000  0.000000      6.000000
  0.444444  0.000000  0.000000      6.000000
  0.500000  0.000000  0.000000      3.000000
  0.055556  0.055556  0.000000      6.000000
  0.111111  0.055556  0.000000     12.000000
  0.166667  0.055556  0.000000     12.000000
  0.222222  0.055556  0.000000     12.000000
  0.277778  0.055556  0.000000     12.000000
  0.333333  0.055556  0.000000     12.000000
  0.388889  0.055556  0.000000     12.000000
  0.444444  0.055556  0.000000     12.000000
  0.111111  0.111111  0.000000      6.000000
  0.166667  0.111111  0.000000     12.000000
  0.222222  0.111111  0.000000     12.000000
  0.277778  0.111111  0.000000     12.000000
  0.333333  0.111111  0.000000     12.000000
  0.388889  0.111111  0.000000     12.000000
  0.444444  0.111111  0.000000      6.000000
  0.166667  0.166667  0.000000      6.000000
  0.222222  0.166667  0.000000     12.000000
  0.277778  0.166667  0.000000     12.000000
  0.333333  0.166667  0.000000     12.000000
  0.388889  0.166667  0.000000     12.000000
  0.222222  0.222222  0.000000      6.000000
  0.277778  0.222222  0.000000     12.000000
  0.333333  0.222222  0.000000     12.000000
  0.388889  0.222222  0.000000      6.000000
  0.277778  0.277778  0.000000      6.000000
  0.333333  0.277778  0.000000     12.000000
  0.333333  0.333333  0.000000      2.000000
 
 Following cartesian coordinates:
            Coordinates               Weight
  0.000000  0.000000  0.000000      1.000000
  0.016735  0.009662  0.000000      6.000000
  0.033470  0.019324  0.000000      6.000000
  0.050205  0.028986  0.000000      6.000000
  0.066939  0.038648  0.000000      6.000000
  0.083674  0.048309  0.000000      6.000000
  0.100409  0.057971  0.000000      6.000000
  0.117144  0.067633  0.000000      6.000000
  0.133879  0.077295  0.000000      6.000000
  0.150614  0.086957  0.000000      3.000000
  0.016735  0.028986  0.000000      6.000000
  0.033470  0.038648  0.000000     12.000000
  0.050205  0.048309  0.000000     12.000000
  0.066939  0.057971  0.000000     12.000000
  0.083674  0.067633  0.000000     12.000000
  0.100409  0.077295  0.000000     12.000000
  0.117144  0.086957  0.000000     12.000000
  0.133879  0.096619  0.000000     12.000000
  0.033470  0.057971  0.000000      6.000000
  0.050205  0.067633  0.000000     12.000000
  0.066939  0.077295  0.000000     12.000000
  0.083674  0.086957  0.000000     12.000000
  0.100409  0.096619  0.000000     12.000000
  0.117144  0.106281  0.000000     12.000000
  0.133879  0.115943  0.000000      6.000000
  0.050205  0.086957  0.000000      6.000000
  0.066939  0.096619  0.000000     12.000000
  0.083674  0.106281  0.000000     12.000000
  0.100409  0.115943  0.000000     12.000000
  0.117144  0.125604  0.000000     12.000000
  0.066939  0.115943  0.000000      6.000000
  0.083674  0.125604  0.000000     12.000000
  0.100409  0.135266  0.000000     12.000000
  0.117144  0.144928  0.000000      6.000000
  0.083674  0.144928  0.000000      6.000000
  0.100409  0.154590  0.000000     12.000000
  0.100409  0.173914  0.000000      2.000000
 
 TETIRR: Found    169 inequivalent tetrahedra from     1944
 
 Subroutine IBZKPT_HF returns following result:
 ==============================================
 
 Found    324 k-points in 1st BZ
 the following    324 k-points will be used (e.g. in the exchange kernel)
 Following reciprocal coordinates:   # in IRBZ
  0.000000  0.000000  0.000000    0.00308642   1 t-inv F
  0.055556  0.000000  0.000000    0.00308642   2 t-inv F
  0.111111  0.000000  0.000000    0.00308642   3 t-inv F
  0.166667  0.000000  0.000000    0.00308642   4 t-inv F
  0.222222  0.000000  0.000000    0.00308642   5 t-inv F
  0.277778  0.000000  0.000000    0.00308642   6 t-inv F
  0.333333  0.000000  0.000000    0.00308642   7 t-inv F
  0.388889  0.000000  0.000000    0.00308642   8 t-inv F
  0.444444  0.000000  0.000000    0.00308642   9 t-inv F
  0.500000  0.000000  0.000000    0.00308642  10 t-inv F
  0.055556  0.055556  0.000000    0.00308642  11 t-inv F
  0.111111  0.055556  0.000000    0.00308642  12 t-inv F
  0.166667  0.055556  0.000000    0.00308642  13 t-inv F
  0.222222  0.055556  0.000000    0.00308642  14 t-inv F
  0.277778  0.055556  0.000000    0.00308642  15 t-inv F
  0.333333  0.055556  0.000000    0.00308642  16 t-inv F
  0.388889  0.055556  0.000000    0.00308642  17 t-inv F
  0.444444  0.055556  0.000000    0.00308642  18 t-inv F
  0.111111  0.111111  0.000000    0.00308642  19 t-inv F
  0.166667  0.111111  0.000000    0.00308642  20 t-inv F
  0.222222  0.111111  0.000000    0.00308642  21 t-inv F
  0.277778  0.111111  0.000000    0.00308642  22 t-inv F
  0.333333  0.111111  0.000000    0.00308642  23 t-inv F
  0.388889  0.111111  0.000000    0.00308642  24 t-inv F
  0.444444  0.111111  0.000000    0.00308642  25 t-inv F
  0.166667  0.166667  0.000000    0.00308642  26 t-inv F
  0.222222  0.166667  0.000000    0.00308642  27 t-inv F
  0.277778  0.166667  0.000000    0.00308642  28 t-inv F
  0.333333  0.166667  0.000000    0.00308642  29 t-inv F
  0.388889  0.166667  0.000000    0.00308642  30 t-inv F
  0.222222  0.222222  0.000000    0.00308642  31 t-inv F
  0.277778  0.222222  0.000000    0.00308642  32 t-inv F
  0.333333  0.222222  0.000000    0.00308642  33 t-inv F
  0.388889  0.222222  0.000000    0.00308642  34 t-inv F
  0.277778  0.277778  0.000000    0.00308642  35 t-inv F
  0.333333  0.277778  0.000000    0.00308642  36 t-inv F
  0.333333  0.333333  0.000000    0.00308642  37 t-inv F
 -0.055556  0.055556  0.000000    0.00308642   2 t-inv F
  0.000000 -0.055556 -0.000000    0.00308642   2 t-inv F
 -0.111111  0.111111  0.000000    0.00308642   3 t-inv F
  0.000000 -0.111111 -0.000000    0.00308642   3 t-inv F
 -0.166667  0.166667  0.000000    0.00308642   4 t-inv F
  0.000000 -0.166667 -0.000000    0.00308642   4 t-inv F
 -0.222222  0.222222  0.000000    0.00308642   5 t-inv F
  0.000000 -0.222222 -0.000000    0.00308642   5 t-inv F
 -0.277778  0.277778  0.000000    0.00308642   6 t-inv F
  0.000000 -0.277778 -0.000000    0.00308642   6 t-inv F
 -0.333333  0.333333  0.000000    0.00308642   7 t-inv F
  0.000000 -0.333333 -0.000000    0.00308642   7 t-inv F
 -0.388889  0.388889  0.000000    0.00308642   8 t-inv F
  0.000000 -0.388889 -0.000000    0.00308642   8 t-inv F
 -0.444444  0.444444  0.000000    0.00308642   9 t-inv F
  0.000000 -0.444444 -0.000000    0.00308642   9 t-inv F
 -0.500000  0.500000  0.000000    0.00308642  10 t-inv F
  0.000000 -0.500000 -0.000000    0.00308642  10 t-inv F
 -0.055556  0.111111  0.000000    0.00308642  11 t-inv F
  0.055556 -0.111111 -0.000000    0.00308642  11 t-inv F
 -0.111111  0.055556  0.000000    0.00308642  11 t-inv F
 -0.055556 -0.055556 -0.000000    0.00308642  11 t-inv F
  0.111111 -0.055556  0.000000    0.00308642  11 t-inv F
 -0.111111  0.166667  0.000000    0.00308642  12 t-inv F
  0.055556 -0.166667 -0.000000    0.00308642  12 t-inv F
 -0.166667  0.111111  0.000000    0.00308642  12 t-inv F
 -0.055556 -0.111111 -0.000000    0.00308642  12 t-inv F
  0.166667 -0.055556  0.000000    0.00308642  12 t-inv F
 -0.166667  0.222222  0.000000    0.00308642  13 t-inv F
  0.055556 -0.222222 -0.000000    0.00308642  13 t-inv F
 -0.222222  0.166667  0.000000    0.00308642  13 t-inv F
 -0.055556 -0.166667 -0.000000    0.00308642  13 t-inv F
  0.222222 -0.055556  0.000000    0.00308642  13 t-inv F
 -0.222222  0.277778  0.000000    0.00308642  14 t-inv F
  0.055556 -0.277778 -0.000000    0.00308642  14 t-inv F
 -0.277778  0.222222  0.000000    0.00308642  14 t-inv F
 -0.055556 -0.222222 -0.000000    0.00308642  14 t-inv F
  0.277778 -0.055556  0.000000    0.00308642  14 t-inv F
 -0.277778  0.333333  0.000000    0.00308642  15 t-inv F
  0.055556 -0.333333 -0.000000    0.00308642  15 t-inv F
 -0.333333  0.277778  0.000000    0.00308642  15 t-inv F
 -0.055556 -0.277778 -0.000000    0.00308642  15 t-inv F
  0.333333 -0.055556  0.000000    0.00308642  15 t-inv F
 -0.333333  0.388889  0.000000    0.00308642  16 t-inv F
  0.055556 -0.388889 -0.000000    0.00308642  16 t-inv F
 -0.388889  0.333333  0.000000    0.00308642  16 t-inv F
 -0.055556 -0.333333 -0.000000    0.00308642  16 t-inv F
  0.388889 -0.055556  0.000000    0.00308642  16 t-inv F
 -0.388889  0.444444  0.000000    0.00308642  17 t-inv F
  0.055556 -0.444444 -0.000000    0.00308642  17 t-inv F
 -0.444444  0.388889  0.000000    0.00308642  17 t-inv F
 -0.055556 -0.388889 -0.000000    0.00308642  17 t-inv F
  0.444444 -0.055556  0.000000    0.00308642  17 t-inv F
 -0.444444  0.500000  0.000000    0.00308642  18 t-inv F
  0.055556 -0.500000 -0.000000    0.00308642  18 t-inv F
 -0.500000  0.444444  0.000000    0.00308642  18 t-inv F
 -0.055556 -0.444444 -0.000000    0.00308642  18 t-inv F
  0.500000 -0.055556  0.000000    0.00308642  18 t-inv F
 -0.111111  0.222222  0.000000    0.00308642  19 t-inv F
  0.111111 -0.222222 -0.000000    0.00308642  19 t-inv F
 -0.222222  0.111111  0.000000    0.00308642  19 t-inv F
 -0.111111 -0.111111 -0.000000    0.00308642  19 t-inv F
  0.222222 -0.111111  0.000000    0.00308642  19 t-inv F
 -0.166667  0.277778  0.000000    0.00308642  20 t-inv F
  0.111111 -0.277778 -0.000000    0.00308642  20 t-inv F
 -0.277778  0.166667  0.000000    0.00308642  20 t-inv F
 -0.111111 -0.166667 -0.000000    0.00308642  20 t-inv F
  0.277778 -0.111111  0.000000    0.00308642  20 t-inv F
 -0.222222  0.333333  0.000000    0.00308642  21 t-inv F
  0.111111 -0.333333 -0.000000    0.00308642  21 t-inv F
 -0.333333  0.222222  0.000000    0.00308642  21 t-inv F
 -0.111111 -0.222222 -0.000000    0.00308642  21 t-inv F
  0.333333 -0.111111  0.000000    0.00308642  21 t-inv F
 -0.277778  0.388889  0.000000    0.00308642  22 t-inv F
  0.111111 -0.388889 -0.000000    0.00308642  22 t-inv F
 -0.388889  0.277778  0.000000    0.00308642  22 t-inv F
 -0.111111 -0.277778 -0.000000    0.00308642  22 t-inv F
  0.388889 -0.111111  0.000000    0.00308642  22 t-inv F
 -0.333333  0.444444  0.000000    0.00308642  23 t-inv F
  0.111111 -0.444444 -0.000000    0.00308642  23 t-inv F
 -0.444444  0.333333  0.000000    0.00308642  23 t-inv F
 -0.111111 -0.333333 -0.000000    0.00308642  23 t-inv F
  0.444444 -0.111111  0.000000    0.00308642  23 t-inv F
 -0.388889  0.500000  0.000000    0.00308642  24 t-inv F
  0.111111 -0.500000 -0.000000    0.00308642  24 t-inv F
 -0.500000  0.388889  0.000000    0.00308642  24 t-inv F
 -0.111111 -0.388889 -0.000000    0.00308642  24 t-inv F
  0.500000 -0.111111  0.000000    0.00308642  24 t-inv F
 -0.444444  0.555556  0.000000    0.00308642  25 t-inv F
  0.111111 -0.555556 -0.000000    0.00308642  25 t-inv F
 -0.555556  0.444444  0.000000    0.00308642  25 t-inv F
 -0.111111 -0.444444 -0.000000    0.00308642  25 t-inv F
  0.555556 -0.111111  0.000000    0.00308642  25 t-inv F
 -0.166667  0.333333  0.000000    0.00308642  26 t-inv F
  0.166667 -0.333333 -0.000000    0.00308642  26 t-inv F
 -0.333333  0.166667  0.000000    0.00308642  26 t-inv F
 -0.166667 -0.166667 -0.000000    0.00308642  26 t-inv F
  0.333333 -0.166667  0.000000    0.00308642  26 t-inv F
 -0.222222  0.388889  0.000000    0.00308642  27 t-inv F
  0.166667 -0.388889 -0.000000    0.00308642  27 t-inv F
 -0.388889  0.222222  0.000000    0.00308642  27 t-inv F
 -0.166667 -0.222222 -0.000000    0.00308642  27 t-inv F
  0.388889 -0.166667  0.000000    0.00308642  27 t-inv F
 -0.277778  0.444444  0.000000    0.00308642  28 t-inv F
  0.166667 -0.444444 -0.000000    0.00308642  28 t-inv F
 -0.444444  0.277778  0.000000    0.00308642  28 t-inv F
 -0.166667 -0.277778 -0.000000    0.00308642  28 t-inv F
  0.444444 -0.166667  0.000000    0.00308642  28 t-inv F
 -0.333333  0.500000  0.000000    0.00308642  29 t-inv F
  0.166667 -0.500000 -0.000000    0.00308642  29 t-inv F
 -0.500000  0.333333  0.000000    0.00308642  29 t-inv F
 -0.166667 -0.333333 -0.000000    0.00308642  29 t-inv F
  0.500000 -0.166667  0.000000    0.00308642  29 t-inv F
 -0.388889  0.555556  0.000000    0.00308642  30 t-inv F
  0.166667 -0.555556 -0.000000    0.00308642  30 t-inv F
 -0.555556  0.388889  0.000000    0.00308642  30 t-inv F
 -0.166667 -0.388889 -0.000000    0.00308642  30 t-inv F
  0.555556 -0.166667  0.000000    0.00308642  30 t-inv F
 -0.222222  0.444444  0.000000    0.00308642  31 t-inv F
  0.222222 -0.444444 -0.000000    0.00308642  31 t-inv F
 -0.444444  0.222222  0.000000    0.00308642  31 t-inv F
 -0.222222 -0.222222 -0.000000    0.00308642  31 t-inv F
  0.444444 -0.222222  0.000000    0.00308642  31 t-inv F
 -0.277778  0.500000  0.000000    0.00308642  32 t-inv F
  0.222222 -0.500000 -0.000000    0.00308642  32 t-inv F
 -0.500000  0.277778  0.000000    0.00308642  32 t-inv F
 -0.222222 -0.277778 -0.000000    0.00308642  32 t-inv F
  0.500000 -0.222222  0.000000    0.00308642  32 t-inv F
 -0.333333  0.555556  0.000000    0.00308642  33 t-inv F
  0.222222 -0.555556 -0.000000    0.00308642  33 t-inv F
 -0.555556  0.333333  0.000000    0.00308642  33 t-inv F
 -0.222222 -0.333333 -0.000000    0.00308642  33 t-inv F
  0.555556 -0.222222  0.000000    0.00308642  33 t-inv F
 -0.388889  0.611111  0.000000    0.00308642  34 t-inv F
  0.222222 -0.611111 -0.000000    0.00308642  34 t-inv F
 -0.611111  0.388889  0.000000    0.00308642  34 t-inv F
 -0.222222 -0.388889 -0.000000    0.00308642  34 t-inv F
  0.611111 -0.222222  0.000000    0.00308642  34 t-inv F
 -0.277778  0.555556  0.000000    0.00308642  35 t-inv F
  0.277778 -0.555556 -0.000000    0.00308642  35 t-inv F
 -0.555556  0.277778  0.000000    0.00308642  35 t-inv F
 -0.277778 -0.277778 -0.000000    0.00308642  35 t-inv F
  0.555556 -0.277778  0.000000    0.00308642  35 t-inv F
 -0.333333  0.611111  0.000000    0.00308642  36 t-inv F
  0.277778 -0.611111 -0.000000    0.00308642  36 t-inv F
 -0.611111  0.333333  0.000000    0.00308642  36 t-inv F
 -0.277778 -0.333333 -0.000000    0.00308642  36 t-inv F
  0.611111 -0.277778  0.000000    0.00308642  36 t-inv F
 -0.333333  0.666667  0.000000    0.00308642  37 t-inv F
 -0.055556 -0.000000 -0.000000    0.00308642   2 t-inv T
  0.055556 -0.055556 -0.000000    0.00308642   2 t-inv T
 -0.000000  0.055556  0.000000    0.00308642   2 t-inv T
 -0.111111 -0.000000 -0.000000    0.00308642   3 t-inv T
  0.111111 -0.111111 -0.000000    0.00308642   3 t-inv T
 -0.000000  0.111111  0.000000    0.00308642   3 t-inv T
 -0.166667 -0.000000 -0.000000    0.00308642   4 t-inv T
  0.166667 -0.166667 -0.000000    0.00308642   4 t-inv T
 -0.000000  0.166667  0.000000    0.00308642   4 t-inv T
 -0.222222 -0.000000 -0.000000    0.00308642   5 t-inv T
  0.222222 -0.222222 -0.000000    0.00308642   5 t-inv T
 -0.000000  0.222222  0.000000    0.00308642   5 t-inv T
 -0.277778 -0.000000 -0.000000    0.00308642   6 t-inv T
  0.277778 -0.277778 -0.000000    0.00308642   6 t-inv T
 -0.000000  0.277778  0.000000    0.00308642   6 t-inv T
 -0.333333 -0.000000 -0.000000    0.00308642   7 t-inv T
  0.333333 -0.333333 -0.000000    0.00308642   7 t-inv T
 -0.000000  0.333333  0.000000    0.00308642   7 t-inv T
 -0.388889 -0.000000 -0.000000    0.00308642   8 t-inv T
  0.388889 -0.388889 -0.000000    0.00308642   8 t-inv T
 -0.000000  0.388889  0.000000    0.00308642   8 t-inv T
 -0.444444 -0.000000 -0.000000    0.00308642   9 t-inv T
  0.444444 -0.444444 -0.000000    0.00308642   9 t-inv T
 -0.000000  0.444444  0.000000    0.00308642   9 t-inv T
 -0.111111 -0.055556 -0.000000    0.00308642  12 t-inv T
  0.111111 -0.166667 -0.000000    0.00308642  12 t-inv T
 -0.055556  0.166667  0.000000    0.00308642  12 t-inv T
  0.166667 -0.111111 -0.000000    0.00308642  12 t-inv T
  0.055556  0.111111  0.000000    0.00308642  12 t-inv T
 -0.166667  0.055556 -0.000000    0.00308642  12 t-inv T
 -0.166667 -0.055556 -0.000000    0.00308642  13 t-inv T
  0.166667 -0.222222 -0.000000    0.00308642  13 t-inv T
 -0.055556  0.222222  0.000000    0.00308642  13 t-inv T
  0.222222 -0.166667 -0.000000    0.00308642  13 t-inv T
  0.055556  0.166667  0.000000    0.00308642  13 t-inv T
 -0.222222  0.055556 -0.000000    0.00308642  13 t-inv T
 -0.222222 -0.055556 -0.000000    0.00308642  14 t-inv T
  0.222222 -0.277778 -0.000000    0.00308642  14 t-inv T
 -0.055556  0.277778  0.000000    0.00308642  14 t-inv T
  0.277778 -0.222222 -0.000000    0.00308642  14 t-inv T
  0.055556  0.222222  0.000000    0.00308642  14 t-inv T
 -0.277778  0.055556 -0.000000    0.00308642  14 t-inv T
 -0.277778 -0.055556 -0.000000    0.00308642  15 t-inv T
  0.277778 -0.333333 -0.000000    0.00308642  15 t-inv T
 -0.055556  0.333333  0.000000    0.00308642  15 t-inv T
  0.333333 -0.277778 -0.000000    0.00308642  15 t-inv T
  0.055556  0.277778  0.000000    0.00308642  15 t-inv T
 -0.333333  0.055556 -0.000000    0.00308642  15 t-inv T
 -0.333333 -0.055556 -0.000000    0.00308642  16 t-inv T
  0.333333 -0.388889 -0.000000    0.00308642  16 t-inv T
 -0.055556  0.388889  0.000000    0.00308642  16 t-inv T
  0.388889 -0.333333 -0.000000    0.00308642  16 t-inv T
  0.055556  0.333333  0.000000    0.00308642  16 t-inv T
 -0.388889  0.055556 -0.000000    0.00308642  16 t-inv T
 -0.388889 -0.055556 -0.000000    0.00308642  17 t-inv T
  0.388889 -0.444444 -0.000000    0.00308642  17 t-inv T
 -0.055556  0.444444  0.000000    0.00308642  17 t-inv T
  0.444444 -0.388889 -0.000000    0.00308642  17 t-inv T
  0.055556  0.388889  0.000000    0.00308642  17 t-inv T
 -0.444444  0.055556 -0.000000    0.00308642  17 t-inv T
 -0.444444 -0.055556 -0.000000    0.00308642  18 t-inv T
  0.444444 -0.500000 -0.000000    0.00308642  18 t-inv T
 -0.055556  0.500000  0.000000    0.00308642  18 t-inv T
  0.500000 -0.444444 -0.000000    0.00308642  18 t-inv T
  0.055556  0.444444  0.000000    0.00308642  18 t-inv T
 -0.500000  0.055556 -0.000000    0.00308642  18 t-inv T
 -0.166667 -0.111111 -0.000000    0.00308642  20 t-inv T
  0.166667 -0.277778 -0.000000    0.00308642  20 t-inv T
 -0.111111  0.277778  0.000000    0.00308642  20 t-inv T
  0.277778 -0.166667 -0.000000    0.00308642  20 t-inv T
  0.111111  0.166667  0.000000    0.00308642  20 t-inv T
 -0.277778  0.111111 -0.000000    0.00308642  20 t-inv T
 -0.222222 -0.111111 -0.000000    0.00308642  21 t-inv T
  0.222222 -0.333333 -0.000000    0.00308642  21 t-inv T
 -0.111111  0.333333  0.000000    0.00308642  21 t-inv T
  0.333333 -0.222222 -0.000000    0.00308642  21 t-inv T
  0.111111  0.222222  0.000000    0.00308642  21 t-inv T
 -0.333333  0.111111 -0.000000    0.00308642  21 t-inv T
 -0.277778 -0.111111 -0.000000    0.00308642  22 t-inv T
  0.277778 -0.388889 -0.000000    0.00308642  22 t-inv T
 -0.111111  0.388889  0.000000    0.00308642  22 t-inv T
  0.388889 -0.277778 -0.000000    0.00308642  22 t-inv T
  0.111111  0.277778  0.000000    0.00308642  22 t-inv T
 -0.388889  0.111111 -0.000000    0.00308642  22 t-inv T
 -0.333333 -0.111111 -0.000000    0.00308642  23 t-inv T
  0.333333 -0.444444 -0.000000    0.00308642  23 t-inv T
 -0.111111  0.444444  0.000000    0.00308642  23 t-inv T
  0.444444 -0.333333 -0.000000    0.00308642  23 t-inv T
  0.111111  0.333333  0.000000    0.00308642  23 t-inv T
 -0.444444  0.111111 -0.000000    0.00308642  23 t-inv T
 -0.388889 -0.111111 -0.000000    0.00308642  24 t-inv T
  0.388889 -0.500000 -0.000000    0.00308642  24 t-inv T
 -0.111111  0.500000  0.000000    0.00308642  24 t-inv T
  0.500000 -0.388889 -0.000000    0.00308642  24 t-inv T
  0.111111  0.388889  0.000000    0.00308642  24 t-inv T
 -0.500000  0.111111 -0.000000    0.00308642  24 t-inv T
 -0.222222 -0.166667 -0.000000    0.00308642  27 t-inv T
  0.222222 -0.388889 -0.000000    0.00308642  27 t-inv T
 -0.166667  0.388889  0.000000    0.00308642  27 t-inv T
  0.388889 -0.222222 -0.000000    0.00308642  27 t-inv T
  0.166667  0.222222  0.000000    0.00308642  27 t-inv T
 -0.388889  0.166667 -0.000000    0.00308642  27 t-inv T
 -0.277778 -0.166667 -0.000000    0.00308642  28 t-inv T
  0.277778 -0.444444 -0.000000    0.00308642  28 t-inv T
 -0.166667  0.444444  0.000000    0.00308642  28 t-inv T
  0.444444 -0.277778 -0.000000    0.00308642  28 t-inv T
  0.166667  0.277778  0.000000    0.00308642  28 t-inv T
 -0.444444  0.166667 -0.000000    0.00308642  28 t-inv T
 -0.333333 -0.166667 -0.000000    0.00308642  29 t-inv T
  0.333333 -0.500000 -0.000000    0.00308642  29 t-inv T
 -0.166667  0.500000  0.000000    0.00308642  29 t-inv T
  0.500000 -0.333333 -0.000000    0.00308642  29 t-inv T
  0.166667  0.333333  0.000000    0.00308642  29 t-inv T
 -0.500000  0.166667 -0.000000    0.00308642  29 t-inv T
 -0.388889 -0.166667 -0.000000    0.00308642  30 t-inv T
  0.388889 -0.555556 -0.000000    0.00308642  30 t-inv T
 -0.166667  0.555556  0.000000    0.00308642  30 t-inv T
  0.555556 -0.388889 -0.000000    0.00308642  30 t-inv T
  0.166667  0.388889  0.000000    0.00308642  30 t-inv T
 -0.555556  0.166667 -0.000000    0.00308642  30 t-inv T
 -0.277778 -0.222222 -0.000000    0.00308642  32 t-inv T
  0.277778 -0.500000 -0.000000    0.00308642  32 t-inv T
 -0.222222  0.500000  0.000000    0.00308642  32 t-inv T
  0.500000 -0.277778 -0.000000    0.00308642  32 t-inv T
  0.222222  0.277778  0.000000    0.00308642  32 t-inv T
 -0.500000  0.222222 -0.000000    0.00308642  32 t-inv T
 -0.333333 -0.222222 -0.000000    0.00308642  33 t-inv T
  0.333333 -0.555556 -0.000000    0.00308642  33 t-inv T
 -0.222222  0.555556  0.000000    0.00308642  33 t-inv T
  0.555556 -0.333333 -0.000000    0.00308642  33 t-inv T
  0.222222  0.333333  0.000000    0.00308642  33 t-inv T
 -0.555556  0.222222 -0.000000    0.00308642  33 t-inv T
 -0.333333 -0.277778 -0.000000    0.00308642  36 t-inv T
  0.333333 -0.611111 -0.000000    0.00308642  36 t-inv T
 -0.277778  0.611111  0.000000    0.00308642  36 t-inv T
  0.611111 -0.333333 -0.000000    0.00308642  36 t-inv T
  0.277778  0.333333  0.000000    0.00308642  36 t-inv T
 -0.611111  0.277778 -0.000000    0.00308642  36 t-inv T


--------------------------------------------------------------------------------------------------------




 Dimension of arrays:
   k-points           NKPTS =     37   k-points in BZ     NKDIM =     37   number of bands    NBANDS=     28
   number of dos      NEDOS =    301   number of ions     NIONS =      3
   non local maximal  LDIM  =     11   non local SUM 2l+1 LMDIM =     41
   total plane-waves  NPLWV = 128000
   max r-space proj   IRMAX =      1   max aug-charges    IRDMAX=  11895
   dimension x,y,z NGX =    20 NGY =   20 NGZ =  320
   dimension x,y,z NGXF=    40 NGYF=   40 NGZF=  640
   support grid    NGXF=    40 NGYF=   40 NGZF=  640
   ions per type =               1   2
 NGX,Y,Z   is equivalent  to a cutoff of  10.02, 10.02, 10.64 a.u.
 NGXF,Y,Z  is equivalent  to a cutoff of  20.03, 20.03, 21.28 a.u.


 I would recommend the setting:
   dimension x,y,z NGX =    20 NGY =   20 NGZ =  303
 SYSTEM =  unknown system                          
 POSCAR =  Mo Se                                   

 Startparameter for this run:
   NWRITE =      2    write-flag & timer
   PREC   = accura    normal or accurate (medium, high low for compatibility)
   ISTART =      0    job   : 0-new  1-cont  2-samecut
   ICHARG =      2    charge: 1-file 2-atom 10-const
   ISPIN  =      1    spin polarized calculation?
   LNONCOLLINEAR =      F non collinear calculations
   LSORBIT =      F    spin-orbit coupling
   INIWAV =      1    electr: 0-lowe 1-rand  2-diag
   LASPH  =      F    aspherical Exc in radial PAW
   METAGGA=      F    non-selfconsistent MetaGGA calc.

 Electronic Relaxation 1
   ENCUT  =  344.9 eV  25.35 Ry    5.03 a.u.   5.03  5.03 75.72*2*pi/ulx,y,z
   ENINI  =  344.9     initial cutoff
   ENAUG  =  964.7 eV  augmentation charge cutoff
   NELM   =     60;   NELMIN=  5; NELMDL= -5     # of ELM steps 
   EDIFF  = 0.1E-07   stopping-criterion for ELM
   LREAL  =      F    real-space projection
   NLSPLINE    = F    spline interpolate recip. space projectors
   LCOMPAT=      F    compatible to vasp.4.4
   GGA_COMPAT  = T    GGA compatible to vasp.4.4-vasp.4.6
   LMAXPAW     = -100 max onsite density
   LMAXMIX     =    2 max onsite mixed and CHGCAR
   VOSKOWN=      0    Vosko Wilk Nusair interpolation
   ROPT   =    0.00000   0.00000
 Ionic relaxation
   EDIFFG = 0.1E-06   stopping-criterion for IOM
   NSW    =      0    number of steps for IOM
   NBLOCK =      1;   KBLOCK =      1    inner block; outer block 
   IBRION =     -1    ionic relax: 0-MD 1-quasi-New 2-CG
   NFREE  =      0    steps in history (QN), initial steepest desc. (CG)
   ISIF   =      2    stress and relaxation
   IWAVPR =     10    prediction:  0-non 1-charg 2-wave 3-comb
   ISYM   =      2    0-nonsym 1-usesym 2-fastsym
   LCORR  =      T    Harris-Foulkes like correction to forces

   POTIM  = 0.5000    time-step for ionic-motion
   TEIN   =    0.0    initial temperature
   TEBEG  =    0.0;   TEEND  =   0.0 temperature during run
   SMASS  =  -3.00    Nose mass-parameter (am)
   estimated Nose-frequenzy (Omega)   =  0.10E-29 period in steps =****** mass=  -0.252E-27a.u.
   SCALEE = 1.0000    scale energy and forces
   NPACO  =    256;   APACO  = 16.0  distance and # of slots for P.C.
   PSTRESS=    0.0 pullay stress

  Mass of Ions in am
   POMASS =  95.94 78.96
  Ionic Valenz
   ZVAL   =  14.00  6.00
  Atomic Wigner-Seitz radii
   RWIGS  =  -1.00 -1.00
  virtual crystal weights 
   VCA    =   1.00  1.00
   NELECT =      26.0000    total number of electrons
   NUPDOWN=      -1.0000    fix difference up-down

 DOS related values:
   EMIN   =  10.00;   EMAX   =-10.00  energy-range for DOS
   EFERMI =   0.00
   ISMEAR =    -5;   SIGMA  =   0.01  broadening in eV -4-tet -1-fermi 0-gaus

 Electronic relaxation 2 (details)
   IALGO  =     38    algorithm
   LDIAG  =      T    sub-space diagonalisation (order eigenvalues)
   LSUBROT=      F    optimize rotation matrix (better conditioning)
   TURBO    =      0    0=normal 1=particle mesh
   IRESTART =      0    0=no restart 2=restart with 2 vectors
   NREBOOT  =      0    no. of reboots
   NMIN     =      0    reboot dimension
   EREF     =   0.00    reference energy to select bands
   IMIX   =      4    mixing-type and parameters
     AMIX     =   0.40;   BMIX     =  1.00
     AMIX_MAG =   1.60;   BMIX_MAG =  1.00
     AMIN     =   0.10
     WC   =   100.;   INIMIX=   1;  MIXPRE=   1;  MAXMIX= -45

 Intra band minimization:
   WEIMIN = 0.0000     energy-eigenvalue tresh-hold
   EBREAK =  0.89E-10  absolut break condition
   DEPER  =   0.30     relativ break condition  

   TIME   =   0.40     timestep for ELM

  volume/ion in A,a.u.               =     159.07      1073.46
  Fermi-wavevector in a.u.,A,eV,Ry     =   0.620625  1.172810  5.240621  0.385175
  Thomas-Fermi vector in A             =   1.679842
 
 Write flags
   LWAVE  =      T    write WAVECAR
   LCHARG =      T    write CHGCAR
   LVTOT  =      F    write LOCPOT, total local potential
   LVHAR  =      F    write LOCPOT, Hartree potential only
   LELF   =      F    write electronic localiz. function (ELF)
   LORBIT =      0    0 simple, 1 ext, 2 COOP (PROOUT)


 Dipole corrections
   LMONO  =      F    monopole corrections only (constant potential shift)
   LDIPOL =      F    correct potential (dipole corrections)
   IDIPOL =      0    1-x, 2-y, 3-z, 4-all directions 
   EPSILON=  1.0000000 bulk dielectric constant

 Exchange correlation treatment:
   GGA     =    PE    GGA type
   LEXCH   =     8    internal setting for exchange type
   VOSKOWN=      0    Vosko Wilk Nusair interpolation
   LHFCALC =     F    Hartree Fock is set to
   LHFONE  =     F    Hartree Fock one center treatment
   AEXX    =    0.0000 exact exchange contribution

 Linear response parameters
   LEPSILON=     T    determine dielectric tensor
   LRPA    =     F    only Hartree local field effects (RPA)
   LNABLA  =     F    use nabla operator in PAW spheres
   LVEL    =     F    velocity operator in full k-point grid
   LINTERFAST=   F  fast interpolation
   KINTER  =     0    interpolate to denser k-point grid
   CSHIFT  =0.1000    complex shift for real part using Kramers Kronig
   OMEGAMAX=  -1.0    maximum frequency
   DEG_THRESHOLD= 0.2000000E-02 threshold for treating states as degnerate
   RTIME   =    0.100 relaxation time in fs

 Orbital magnetization related:
   ORBITALMAG=     F  switch on orbital magnetization
   LCHIMAG   =     F  perturbation theory with respect to B field
   DQ        =  0.001000  dq finite difference perturbation B field



--------------------------------------------------------------------------------------------------------


 Static calculation
 charge density and potential will be updated during run
 non-spin polarized calculation
 Variant of blocked Davidson
 Davidson routine will perform the subspace rotation
 perform sub-space diagonalisation
    after iterative eigenvector-optimisation
 modified Broyden-mixing scheme, WC =      100.0
 initial mixing is a Kerker type mixing with AMIX =  0.4000 and BMIX =      1.0000
 Hartree-type preconditioning will be used
 using additional bands           15
 reciprocal scheme for non local part
 use partial core corrections
 calculate Harris-corrections to forces 
   (improved forces if not selfconsistent)
 use gradient corrections 
 use of overlap-Matrix (Vanderbilt PP)
 Fermi weights with tetrahedron method with Bloechl corrections


--------------------------------------------------------------------------------------------------------


  energy-cutoff  :      344.91
  volume of cell :      477.21
      direct lattice vectors                 reciprocal lattice vectors
     3.319748788  0.000000000  0.000000000     0.301227612  0.173913843  0.000000000
    -1.659874394  2.874986784  0.000000000     0.000000000  0.347827686  0.000000000
     0.000000000  0.000000000 50.000000000     0.000000000  0.000000000  0.020000000

  length of vectors
     3.319748788  3.319748788 50.000000000     0.347827686  0.347827686  0.020000000


 
 k-points in units of 2pi/SCALE and weight: KPOINTS created by Atomic Simulation Env
   0.00000000  0.00000000  0.00000000       0.003
   0.01673487  0.00966188  0.00000000       0.019
   0.03346973  0.01932376  0.00000000       0.019
   0.05020460  0.02898564  0.00000000       0.019
   0.06693947  0.03864752  0.00000000       0.019
   0.08367434  0.04830940  0.00000000       0.019
   0.10040920  0.05797128  0.00000000       0.019
   0.11714407  0.06763316  0.00000000       0.019
   0.13387894  0.07729504  0.00000000       0.019
   0.15061381  0.08695692  0.00000000       0.009
   0.01673487  0.02898564  0.00000000       0.019
   0.03346973  0.03864752  0.00000000       0.037
   0.05020460  0.04830940  0.00000000       0.037
   0.06693947  0.05797128  0.00000000       0.037
   0.08367434  0.06763316  0.00000000       0.037
   0.10040920  0.07729504  0.00000000       0.037
   0.11714407  0.08695692  0.00000000       0.037
   0.13387894  0.09661880  0.00000000       0.037
   0.03346973  0.05797128  0.00000000       0.019
   0.05020460  0.06763316  0.00000000       0.037
   0.06693947  0.07729504  0.00000000       0.037
   0.08367434  0.08695692  0.00000000       0.037
   0.10040920  0.09661880  0.00000000       0.037
   0.11714407  0.10628068  0.00000000       0.037
   0.13387894  0.11594256  0.00000000       0.019
   0.05020460  0.08695692  0.00000000       0.019
   0.06693947  0.09661880  0.00000000       0.037
   0.08367434  0.10628068  0.00000000       0.037
   0.10040920  0.11594256  0.00000000       0.037
   0.11714407  0.12560444  0.00000000       0.037
   0.06693947  0.11594256  0.00000000       0.019
   0.08367434  0.12560444  0.00000000       0.037
   0.10040920  0.13526632  0.00000000       0.037
   0.11714407  0.14492820  0.00000000       0.019
   0.08367434  0.14492820  0.00000000       0.019
   0.10040920  0.15459008  0.00000000       0.037
   0.10040920  0.17391384  0.00000000       0.006
 
 k-points in reciprocal lattice and weights: KPOINTS created by Atomic Simulation Env
   0.00000000  0.00000000  0.00000000       0.003
   0.05555556  0.00000000  0.00000000       0.019
   0.11111111  0.00000000  0.00000000       0.019
   0.16666667  0.00000000  0.00000000       0.019
   0.22222222  0.00000000  0.00000000       0.019
   0.27777778  0.00000000  0.00000000       0.019
   0.33333333  0.00000000  0.00000000       0.019
   0.38888889  0.00000000  0.00000000       0.019
   0.44444444  0.00000000  0.00000000       0.019
   0.50000000  0.00000000  0.00000000       0.009
   0.05555556  0.05555556  0.00000000       0.019
   0.11111111  0.05555556  0.00000000       0.037
   0.16666667  0.05555556  0.00000000       0.037
   0.22222222  0.05555556  0.00000000       0.037
   0.27777778  0.05555556  0.00000000       0.037
   0.33333333  0.05555556  0.00000000       0.037
   0.38888889  0.05555556  0.00000000       0.037
   0.44444444  0.05555556  0.00000000       0.037
   0.11111111  0.11111111  0.00000000       0.019
   0.16666667  0.11111111  0.00000000       0.037
   0.22222222  0.11111111  0.00000000       0.037
   0.27777778  0.11111111  0.00000000       0.037
   0.33333333  0.11111111  0.00000000       0.037
   0.38888889  0.11111111  0.00000000       0.037
   0.44444444  0.11111111  0.00000000       0.019
   0.16666667  0.16666667  0.00000000       0.019
   0.22222222  0.16666667  0.00000000       0.037
   0.27777778  0.16666667  0.00000000       0.037
   0.33333333  0.16666667  0.00000000       0.037
   0.38888889  0.16666667  0.00000000       0.037
   0.22222222  0.22222222  0.00000000       0.019
   0.27777778  0.22222222  0.00000000       0.037
   0.33333333  0.22222222  0.00000000       0.037
   0.38888889  0.22222222  0.00000000       0.019
   0.27777778  0.27777778  0.00000000       0.019
   0.33333333  0.27777778  0.00000000       0.037
   0.33333333  0.33333333  0.00000000       0.006
 
 position of ions in fractional coordinates (direct lattice) 
   0.16666667  0.33333333  0.50000000
   0.83333333  0.66666667  0.53338059
   0.83333333  0.66666667  0.46661941
 
 position of ions in cartesian coordinates  (Angst):
  -0.00000000  0.95832893 25.00000000
   1.65987439  1.91665786 26.66902948
   1.65987439  1.91665786 23.33097052
 


--------------------------------------------------------------------------------------------------------


 k-point  1 :   0.0000 0.0000 0.0000  plane waves:    6703
 k-point  2 :   0.0556 0.0000 0.0000  plane waves:    6781
 k-point  3 :   0.1111 0.0000 0.0000  plane waves:    6827
 k-point  4 :   0.1667 0.0000 0.0000  plane waves:    6855
 k-point  5 :   0.2222 0.0000 0.0000  plane waves:    6875
 k-point  6 :   0.2778 0.0000 0.0000  plane waves:    6915
 k-point  7 :   0.3333 0.0000 0.0000  plane waves:    6923
 k-point  8 :   0.3889 0.0000 0.0000  plane waves:    6942
 k-point  9 :   0.4444 0.0000 0.0000  plane waves:    6972
 k-point 10 :   0.5000 0.0000 0.0000  plane waves:    6978
 k-point 11 :   0.0556 0.0556 0.0000  plane waves:    6837
 k-point 12 :   0.1111 0.0556 0.0000  plane waves:    6869
 k-point 13 :   0.1667 0.0556 0.0000  plane waves:    6871
 k-point 14 :   0.2222 0.0556 0.0000  plane waves:    6889
 k-point 15 :   0.2778 0.0556 0.0000  plane waves:    6931
 k-point 16 :   0.3333 0.0556 0.0000  plane waves:    6924
 k-point 17 :   0.3889 0.0556 0.0000  plane waves:    6942
 k-point 18 :   0.4444 0.0556 0.0000  plane waves:    6965
 k-point 19 :   0.1111 0.1111 0.0000  plane waves:    6875
 k-point 20 :   0.1667 0.1111 0.0000  plane waves:    6900
 k-point 21 :   0.2222 0.1111 0.0000  plane waves:    6946
 k-point 22 :   0.2778 0.1111 0.0000  plane waves:    6966
 k-point 23 :   0.3333 0.1111 0.0000  plane waves:    6965
 k-point 24 :   0.3889 0.1111 0.0000  plane waves:    6961
 k-point 25 :   0.4444 0.1111 0.0000  plane waves:    6955
 k-point 26 :   0.1667 0.1667 0.0000  plane waves:    6949
 k-point 27 :   0.2222 0.1667 0.0000  plane waves:    6973
 k-point 28 :   0.2778 0.1667 0.0000  plane waves:    6980
 k-point 29 :   0.3333 0.1667 0.0000  plane waves:    6980
 k-point 30 :   0.3889 0.1667 0.0000  plane waves:    6987
 k-point 31 :   0.2222 0.2222 0.0000  plane waves:    6983
 k-point 32 :   0.2778 0.2222 0.0000  plane waves:    6993
 k-point 33 :   0.3333 0.2222 0.0000  plane waves:    7009
 k-point 34 :   0.3889 0.2222 0.0000  plane waves:    7007
 k-point 35 :   0.2778 0.2778 0.0000  plane waves:    7003
 k-point 36 :   0.3333 0.2778 0.0000  plane waves:    7017
 k-point 37 :   0.3333 0.3333 0.0000  plane waves:    7029

 maximum and minimum number of plane-waves per node :      7029     6703

 maximum number of plane-waves:      7029
 maximum index in each direction: 
   IXMAX=    4   IYMAX=    5   IZMAX=   75
   IXMIN=   -5   IYMIN=   -5   IZMIN=  -75

 NGX is ok and might be reduce to  20
 WARNING: aliasing errors must be expected set NGY to  22 to avoid them
 NGZ is ok and might be reduce to 302
 aliasing errors are usually negligible using standard VASP settings
 and one can safely disregard these warnings

 serial   3D FFT for wavefunctions
 parallel 3D FFT for charge:
    minimum data exchange during FFTs selected (reduces bandwidth)


 total amount of memory used by VASP on root node   216185. kBytes
========================================================================

   base      :      30000. kBytes
   nonl-proj :     171601. kBytes
   fftplans  :       2116. kBytes
   grid      :       8000. kBytes
   one-center:        242. kBytes
   wavefun   :       4226. kBytes
 
     INWAV:  cpu time    0.0000: real time    0.0000
 Broyden mixing: mesh for mixing (old mesh)
   NGX =  9   NGY =  9   NGZ =151
  (NGX  = 40   NGY  = 40   NGZ  =640)
  gives a total of  12231 points

 initial charge density was supplied:
 charge density of overlapping atoms calculated
 number of electron      26.0000000 magnetization 
 keeping initial charge density in first step


--------------------------------------------------------------------------------------------------------


 Maximum index for augmentation-charges          953 (set IRDMAX)


--------------------------------------------------------------------------------------------------------


 First call to EWALD:  gamma=   0.227
 Maximum number of real-space cells 7x 7x 1
 Maximum number of reciprocal cells 1x 1x15

 FEWALD executed in parallel
    FEWALD:  cpu time    0.0010: real time    0.0012


----------------------------------------- Iteration    1(   1)  ---------------------------------------


    POTLOK:  cpu time    0.0330: real time    0.0325
    SETDIJ:  cpu time    0.0050: real time    0.0058
     EDDAV:  cpu time    2.1227: real time    2.1275
 BZINTS: Fermi energy:  2.480936; 26.000000 electrons
         Band energy:-377.000382;  BLOECHL correction: -0.071048
       DOS:  cpu time    0.0080: real time    0.0086
    --------------------------------------------
      LOOP:  cpu time    2.1697: real time    2.1767

 eigenvalue-minimisations  :  3108
 total energy-change (2. order) : 0.1057749E+03  (-0.1031360E+04)
 number of electron      26.0000000 magnetization 
 augmentation part       26.0000000 magnetization 

 Free energy of the ion-electron system (eV)
  ---------------------------------------------------
  alpha Z        PSCENC =        13.74168504
  Ewald energy   TEWEN  =     20567.09771385
  -Hartree energ DENC   =    -22571.11924815
  -exchange      EXHF   =         0.00000000
  -V(xc)+E(xc)   XCENC  =        65.32797102
  PAW double counting   =      1929.35188096    -1897.28321967
  entropy T*S    EENTRO =         0.00000000
  eigenvalues    EBANDS =      -377.00038231
  atomic energy  EATOM  =      2375.65847088
  Solvation  Ediel_sol  =         0.00000000
  ---------------------------------------------------
  free energy    TOTEN  =       105.77487161 eV

  energy without entropy =      105.77487161  energy(sigma->0) =      105.77487161


--------------------------------------------------------------------------------------------------------




----------------------------------------- Iteration    1(   2)  ---------------------------------------


     EDDAV:  cpu time    1.6667: real time    1.6705
 BZINTS: Fermi energy: -1.618022; 26.000000 electrons
         Band energy:-498.217103;  BLOECHL correction:  0.000000
       DOS:  cpu time    0.0020: real time    0.0016
    --------------------------------------------
      LOOP:  cpu time    1.6707: real time    1.6754

 eigenvalue-minimisations  :  2380
 total energy-change (2. order) :-0.1212167E+03  (-0.1154912E+03)
 number of electron      26.0000000 magnetization 
 augmentation part       26.0000000 magnetization 

 Free energy of the ion-electron system (eV)
  ---------------------------------------------------
  alpha Z        PSCENC =        13.74168504
  Ewald energy   TEWEN  =     20567.09771385
  -Hartree energ DENC   =    -22571.11924815
  -exchange      EXHF   =         0.00000000
  -V(xc)+E(xc)   XCENC  =        65.32797102
  PAW double counting   =      1929.35188096    -1897.28321967
  entropy T*S    EENTRO =         0.00000000
  eigenvalues    EBANDS =      -498.21710298
  atomic energy  EATOM  =      2375.65847088
  Solvation  Ediel_sol  =         0.00000000
  ---------------------------------------------------
  free energy    TOTEN  =       -15.44184906 eV

  energy without entropy =      -15.44184906  energy(sigma->0) =      -15.44184906


--------------------------------------------------------------------------------------------------------




----------------------------------------- Iteration    1(   3)  ---------------------------------------


     EDDAV:  cpu time    2.7656: real time    2.7705
 BZINTS: Fermi energy: -2.870121; 26.000000 electrons
         Band energy:-506.524906;  BLOECHL correction:  0.000000
       DOS:  cpu time    0.0010: real time    0.0018
    --------------------------------------------
      LOOP:  cpu time    2.7676: real time    2.7746

 eigenvalue-minimisations  :  4004
 total energy-change (2. order) :-0.8307803E+01  (-0.8307803E+01)
 number of electron      26.0000000 magnetization 
 augmentation part       26.0000000 magnetization 

 Free energy of the ion-electron system (eV)
  ---------------------------------------------------
  alpha Z        PSCENC =        13.74168504
  Ewald energy   TEWEN  =     20567.09771385
  -Hartree energ DENC   =    -22571.11924815
  -exchange      EXHF   =         0.00000000
  -V(xc)+E(xc)   XCENC  =        65.32797102
  PAW double counting   =      1929.35188096    -1897.28321967
  entropy T*S    EENTRO =         0.00000000
  eigenvalues    EBANDS =      -506.52490632
  atomic energy  EATOM  =      2375.65847088
  Solvation  Ediel_sol  =         0.00000000
  ---------------------------------------------------
  free energy    TOTEN  =       -23.74965240 eV

  energy without entropy =      -23.74965240  energy(sigma->0) =      -23.74965240


--------------------------------------------------------------------------------------------------------




----------------------------------------- Iteration    1(   4)  ---------------------------------------


     EDDAV:  cpu time    1.5498: real time    1.5533
 BZINTS: Fermi energy: -2.886480; 26.000000 electrons
         Band energy:-506.547302;  BLOECHL correction:  0.000000
       DOS:  cpu time    0.0020: real time    0.0018
    --------------------------------------------
      LOOP:  cpu time    1.5528: real time    1.5578

 eigenvalue-minimisations  :  2184
 total energy-change (2. order) :-0.2239598E-01  (-0.2239598E-01)
 number of electron      26.0000000 magnetization 
 augmentation part       26.0000000 magnetization 

 Free energy of the ion-electron system (eV)
  ---------------------------------------------------
  alpha Z        PSCENC =        13.74168504
  Ewald energy   TEWEN  =     20567.09771385
  -Hartree energ DENC   =    -22571.11924815
  -exchange      EXHF   =         0.00000000
  -V(xc)+E(xc)   XCENC  =        65.32797102
  PAW double counting   =      1929.35188096    -1897.28321967
  entropy T*S    EENTRO =         0.00000000
  eigenvalues    EBANDS =      -506.54730230
  atomic energy  EATOM  =      2375.65847088
  Solvation  Ediel_sol  =         0.00000000
  ---------------------------------------------------
  free energy    TOTEN  =       -23.77204838 eV

  energy without entropy =      -23.77204838  energy(sigma->0) =      -23.77204838


--------------------------------------------------------------------------------------------------------




----------------------------------------- Iteration    1(   5)  ---------------------------------------


     EDDAV:  cpu time    2.6476: real time    2.6520
 BZINTS: Fermi energy: -2.905363; 26.000000 electrons
         Band energy:-506.547619;  BLOECHL correction:  0.000000
       DOS:  cpu time    0.0010: real time    0.0018
    CHARGE:  cpu time    0.0950: real time    0.0944
    MIXING:  cpu time    0.0010: real time    0.0013
    --------------------------------------------
      LOOP:  cpu time    2.7456: real time    2.7518

 eigenvalue-minimisations  :  3836
 total energy-change (2. order) :-0.3164093E-03  (-0.3164093E-03)
 number of electron      25.9999997 magnetization 
 augmentation part       -2.7899197 magnetization 

 Broyden mixing:
  rms(total) = 0.97155E+00    rms(broyden)= 0.97086E+00
  rms(prec ) = 0.99745E+00
  weight for this iteration     100.00

 Free energy of the ion-electron system (eV)
  ---------------------------------------------------
  alpha Z        PSCENC =        13.74168504
  Ewald energy   TEWEN  =     20567.09771385
  -Hartree energ DENC   =    -22571.11924815
  -exchange      EXHF   =         0.00000000
  -V(xc)+E(xc)   XCENC  =        65.32797102
  PAW double counting   =      1929.35188096    -1897.28321967
  entropy T*S    EENTRO =         0.00000000
  eigenvalues    EBANDS =      -506.54761871
  atomic energy  EATOM  =      2375.65847088
  Solvation  Ediel_sol  =         0.00000000
  ---------------------------------------------------
  free energy    TOTEN  =       -23.77236479 eV

  energy without entropy =      -23.77236479  energy(sigma->0) =      -23.77236479


--------------------------------------------------------------------------------------------------------




----------------------------------------- Iteration    1(   6)  ---------------------------------------


    POTLOK:  cpu time    0.0290: real time    0.0293
    SETDIJ:  cpu time    0.0060: real time    0.0058
     EDDAV:  cpu time    2.1937: real time    2.1969
 BZINTS: Fermi energy: -5.300892; 26.000000 electrons
         Band energy:-559.937820;  BLOECHL correction:  0.000000
       DOS:  cpu time    0.0010: real time    0.0018
    CHARGE:  cpu time    0.0920: real time    0.0921
    MIXING:  cpu time    0.0020: real time    0.0011
    --------------------------------------------
      LOOP:  cpu time    2.3256: real time    2.3296

 eigenvalue-minimisations  :  3220
 total energy-change (2. order) : 0.1859421E+01  (-0.5070004E+01)
 number of electron      25.9999997 magnetization 
 augmentation part       -2.1513349 magnetization 

 Broyden mixing:
  rms(total) = 0.61388E+00    rms(broyden)= 0.61350E+00
  rms(prec ) = 0.63977E+00
  weight for this iteration     100.00

 eigenvalues of (default mixing * dielectric matrix)
  average eigenvalue GAMMA=   0.6573
  0.6573

 Free energy of the ion-electron system (eV)
  ---------------------------------------------------
  alpha Z        PSCENC =        13.74168504
  Ewald energy   TEWEN  =     20567.09771385
  -Hartree energ DENC   =    -22513.27297592
  -exchange      EXHF   =         0.00000000
  -V(xc)+E(xc)   XCENC  =        63.97186773
  PAW double counting   =      1829.93154239    -1799.10342854
  entropy T*S    EENTRO =         0.00000000
  eigenvalues    EBANDS =      -559.93781955
  atomic energy  EATOM  =      2375.65847088
  Solvation  Ediel_sol  =         0.00000000
  ---------------------------------------------------
  free energy    TOTEN  =       -21.91294412 eV

  energy without entropy =      -21.91294412  energy(sigma->0) =      -21.91294412


--------------------------------------------------------------------------------------------------------




----------------------------------------- Iteration    1(   7)  ---------------------------------------


    POTLOK:  cpu time    0.0290: real time    0.0289
    SETDIJ:  cpu time    0.0060: real time    0.0058
     EDDAV:  cpu time    2.2957: real time    2.2979
 BZINTS: Fermi energy: -3.984611; 26.000000 electrons
         Band energy:-528.628136;  BLOECHL correction:  0.000000
       DOS:  cpu time    0.0020: real time    0.0018
    CHARGE:  cpu time    0.0920: real time    0.0916
    MIXING:  cpu time    0.0010: real time    0.0012
    --------------------------------------------
      LOOP:  cpu time    2.4256: real time    2.4298

 eigenvalue-minimisations  :  3360
 total energy-change (2. order) : 0.1024437E+01  (-0.1504713E+01)
 number of electron      25.9999997 magnetization 
 augmentation part       -2.4786678 magnetization 

 Broyden mixing:
  rms(total) = 0.28396E+00    rms(broyden)= 0.28374E+00
  rms(prec ) = 0.28744E+00
  weight for this iteration     100.00

 eigenvalues of (default mixing * dielectric matrix)
  average eigenvalue GAMMA=   1.5378
  2.5319  0.5437

 Free energy of the ion-electron system (eV)
  ---------------------------------------------------
  alpha Z        PSCENC =        13.74168504
  Ewald energy   TEWEN  =     20567.09771385
  -Hartree energ DENC   =    -22544.68336469
  -exchange      EXHF   =         0.00000000
  -V(xc)+E(xc)   XCENC  =        64.44452727
  PAW double counting   =      1893.84196279    -1862.36136563
  entropy T*S    EENTRO =         0.00000000
  eigenvalues    EBANDS =      -528.62813639
  atomic energy  EATOM  =      2375.65847088
  Solvation  Ediel_sol  =         0.00000000
  ---------------------------------------------------
  free energy    TOTEN  =       -20.88850689 eV

  energy without entropy =      -20.88850689  energy(sigma->0) =      -20.88850689


--------------------------------------------------------------------------------------------------------




----------------------------------------- Iteration    1(   8)  ---------------------------------------


    POTLOK:  cpu time    0.0300: real time    0.0307
    SETDIJ:  cpu time    0.0060: real time    0.0058
     EDDAV:  cpu time    2.1237: real time    2.1259
 BZINTS: Fermi energy: -4.299820; 26.000000 electrons
         Band energy:-532.079896;  BLOECHL correction:  0.000000
       DOS:  cpu time    0.0020: real time    0.0016
    CHARGE:  cpu time    0.0910: real time    0.0918
    MIXING:  cpu time    0.0010: real time    0.0011
    --------------------------------------------
      LOOP:  cpu time    2.2547: real time    2.2611

 eigenvalue-minimisations  :  3080
 total energy-change (2. order) : 0.7012790E-01  (-0.2087717E+00)
 number of electron      25.9999997 magnetization 
 augmentation part       -2.3572843 magnetization 

 Broyden mixing:
  rms(total) = 0.12817E+00    rms(broyden)= 0.12813E+00
  rms(prec ) = 0.13247E+00
  weight for this iteration     100.00

 eigenvalues of (default mixing * dielectric matrix)
  average eigenvalue GAMMA=   1.3439
  0.5168  1.1178  2.3972

 Free energy of the ion-electron system (eV)
  ---------------------------------------------------
  alpha Z        PSCENC =        13.74168504
  Ewald energy   TEWEN  =     20567.09771385
  -Hartree energ DENC   =    -22540.79680731
  -exchange      EXHF   =         0.00000000
  -V(xc)+E(xc)   XCENC  =        64.13562546
  PAW double counting   =      1878.54392753    -1847.11909872
  entropy T*S    EENTRO =         0.00000000
  eigenvalues    EBANDS =      -532.07989571
  atomic energy  EATOM  =      2375.65847088
  Solvation  Ediel_sol  =         0.00000000
  ---------------------------------------------------
  free energy    TOTEN  =       -20.81837898 eV

  energy without entropy =      -20.81837898  energy(sigma->0) =      -20.81837898


--------------------------------------------------------------------------------------------------------




----------------------------------------- Iteration    1(   9)  ---------------------------------------


    POTLOK:  cpu time    0.0290: real time    0.0288
    SETDIJ:  cpu time    0.0050: real time    0.0058
     EDDAV:  cpu time    2.7466: real time    2.7476
 BZINTS: Fermi energy: -4.053263; 26.000000 electrons
         Band energy:-526.720025;  BLOECHL correction:  0.000000
       DOS:  cpu time    0.0020: real time    0.0018
    CHARGE:  cpu time    0.0920: real time    0.0923
    MIXING:  cpu time    0.0000: real time    0.0011
    --------------------------------------------
      LOOP:  cpu time    2.8756: real time    2.8799

 eigenvalue-minimisations  :  3976
 total energy-change (2. order) : 0.4816036E-01  (-0.4095508E-01)
 number of electron      25.9999997 magnetization 
 augmentation part       -2.4149612 magnetization 

 Broyden mixing:
  rms(total) = 0.17106E-01    rms(broyden)= 0.17014E-01
  rms(prec ) = 0.17426E-01
  weight for this iteration     100.00

 eigenvalues of (default mixing * dielectric matrix)
  average eigenvalue GAMMA=   1.4421
  2.5943  0.5171  1.0175  1.6394

 Free energy of the ion-electron system (eV)
  ---------------------------------------------------
  alpha Z        PSCENC =        13.74168504
  Ewald energy   TEWEN  =     20567.09771385
  -Hartree energ DENC   =    -22546.39914562
  -exchange      EXHF   =         0.00000000
  -V(xc)+E(xc)   XCENC  =        64.28519954
  PAW double counting   =      1890.50175472    -1858.93587161
  entropy T*S    EENTRO =         0.00000000
  eigenvalues    EBANDS =      -526.72002541
  atomic energy  EATOM  =      2375.65847088
  Solvation  Ediel_sol  =         0.00000000
  ---------------------------------------------------
  free energy    TOTEN  =       -20.77021862 eV

  energy without entropy =      -20.77021862  energy(sigma->0) =      -20.77021862


--------------------------------------------------------------------------------------------------------




----------------------------------------- Iteration    1(  10)  ---------------------------------------


    POTLOK:  cpu time    0.0310: real time    0.0303
    SETDIJ:  cpu time    0.0050: real time    0.0059
     EDDAV:  cpu time    2.3007: real time    2.3021
 BZINTS: Fermi energy: -3.980699; 26.000000 electrons
         Band energy:-525.397248;  BLOECHL correction:  0.000000
       DOS:  cpu time    0.0010: real time    0.0016
    CHARGE:  cpu time    0.0940: real time    0.0934
    MIXING:  cpu time    0.0010: real time    0.0012
    --------------------------------------------
      LOOP:  cpu time    2.4336: real time    2.4386

 eigenvalue-minimisations  :  3332
 total energy-change (2. order) : 0.8490710E-03  (-0.4943921E-03)
 number of electron      25.9999997 magnetization 
 augmentation part       -2.4151440 magnetization 

 Broyden mixing:
  rms(total) = 0.48676E-02    rms(broyden)= 0.48622E-02
  rms(prec ) = 0.53477E-02
  weight for this iteration     100.00

 eigenvalues of (default mixing * dielectric matrix)
  average eigenvalue GAMMA=   1.4802
  2.5095  0.5171  1.6759  1.6759  1.0222

 Free energy of the ion-electron system (eV)
  ---------------------------------------------------
  alpha Z        PSCENC =        13.74168504
  Ewald energy   TEWEN  =     20567.09771385
  -Hartree energ DENC   =    -22547.77675136
  -exchange      EXHF   =         0.00000000
  -V(xc)+E(xc)   XCENC  =        64.31865021
  PAW double counting   =      1891.00927000    -1859.42116013
  entropy T*S    EENTRO =         0.00000000
  eigenvalues    EBANDS =      -525.39724803
  atomic energy  EATOM  =      2375.65847088
  Solvation  Ediel_sol  =         0.00000000
  ---------------------------------------------------
  free energy    TOTEN  =       -20.76936955 eV

  energy without entropy =      -20.76936955  energy(sigma->0) =      -20.76936955


--------------------------------------------------------------------------------------------------------




----------------------------------------- Iteration    1(  11)  ---------------------------------------


    POTLOK:  cpu time    0.0290: real time    0.0286
    SETDIJ:  cpu time    0.0060: real time    0.0059
     EDDAV:  cpu time    2.6336: real time    2.6358
 BZINTS: Fermi energy: -3.973028; 26.000000 electrons
         Band energy:-524.360986;  BLOECHL correction:  0.000000
       DOS:  cpu time    0.0010: real time    0.0016
    CHARGE:  cpu time    0.0920: real time    0.0918
    MIXING:  cpu time    0.0010: real time    0.0012
    --------------------------------------------
      LOOP:  cpu time    2.7626: real time    2.7674

 eigenvalue-minimisations  :  3808
 total energy-change (2. order) : 0.1839757E-03  (-0.6214378E-04)
 number of electron      25.9999997 magnetization 
 augmentation part       -2.4150850 magnetization 

 Broyden mixing:
  rms(total) = 0.27891E-02    rms(broyden)= 0.27868E-02
  rms(prec ) = 0.31903E-02
  weight for this iteration     100.00

 eigenvalues of (default mixing * dielectric matrix)
  average eigenvalue GAMMA=   1.4675
  2.4245  2.4245  1.4935  0.5170  1.0650  0.8805

 Free energy of the ion-electron system (eV)
  ---------------------------------------------------
  alpha Z        PSCENC =        13.74168504
  Ewald energy   TEWEN  =     20567.09771385
  -Hartree energ DENC   =    -22548.80334641
  -exchange      EXHF   =         0.00000000
  -V(xc)+E(xc)   XCENC  =        64.32190610
  PAW double counting   =      1890.12848686    -1858.55311558
  entropy T*S    EENTRO =         0.00000000
  eigenvalues    EBANDS =      -524.36098631
  atomic energy  EATOM  =      2375.65847088
  Solvation  Ediel_sol  =         0.00000000
  ---------------------------------------------------
  free energy    TOTEN  =       -20.76918557 eV

  energy without entropy =      -20.76918557  energy(sigma->0) =      -20.76918557


--------------------------------------------------------------------------------------------------------




----------------------------------------- Iteration    1(  12)  ---------------------------------------


    POTLOK:  cpu time    0.0290: real time    0.0287
    SETDIJ:  cpu time    0.0060: real time    0.0059
     EDDAV:  cpu time    2.4156: real time    2.4199
 BZINTS: Fermi energy: -3.966232; 26.000000 electrons
         Band energy:-523.432133;  BLOECHL correction:  0.000000
       DOS:  cpu time    0.0010: real time    0.0016
    CHARGE:  cpu time    0.0910: real time    0.0913
    MIXING:  cpu time    0.0010: real time    0.0012
    --------------------------------------------
      LOOP:  cpu time    2.5456: real time    2.5514

 eigenvalue-minimisations  :  3500
 total energy-change (2. order) : 0.1253801E-03  (-0.9489607E-05)
 number of electron      25.9999997 magnetization 
 augmentation part       -2.4147727 magnetization 

 Broyden mixing:
  rms(total) = 0.15830E-02    rms(broyden)= 0.15828E-02
  rms(prec ) = 0.19234E-02
  weight for this iteration     100.00

 eigenvalues of (default mixing * dielectric matrix)
  average eigenvalue GAMMA=   1.6136
  2.8446  2.4930  0.5170  1.0070  1.0070  1.7133  1.7133

 Free energy of the ion-electron system (eV)
  ---------------------------------------------------
  alpha Z        PSCENC =        13.74168504
  Ewald energy   TEWEN  =     20567.09771385
  -Hartree energ DENC   =    -22549.73488682
  -exchange      EXHF   =         0.00000000
  -V(xc)+E(xc)   XCENC  =        64.32878973
  PAW double counting   =      1889.58371682    -1858.01241710
  entropy T*S    EENTRO =         0.00000000
  eigenvalues    EBANDS =      -523.43213258
  atomic energy  EATOM  =      2375.65847088
  Solvation  Ediel_sol  =         0.00000000
  ---------------------------------------------------
  free energy    TOTEN  =       -20.76906019 eV

  energy without entropy =      -20.76906019  energy(sigma->0) =      -20.76906019


--------------------------------------------------------------------------------------------------------




----------------------------------------- Iteration    1(  13)  ---------------------------------------


    POTLOK:  cpu time    0.0290: real time    0.0289
    SETDIJ:  cpu time    0.0060: real time    0.0058
     EDDAV:  cpu time    2.2007: real time    2.2031
 BZINTS: Fermi energy: -3.757708; 26.000000 electrons
         Band energy:-522.466334;  BLOECHL correction:  0.000000
       DOS:  cpu time    0.0020: real time    0.0018
    CHARGE:  cpu time    0.0920: real time    0.0922
    MIXING:  cpu time    0.0010: real time    0.0012
    --------------------------------------------
      LOOP:  cpu time    2.3306: real time    2.3366

 eigenvalue-minimisations  :  3192
 total energy-change (2. order) :-0.4520545E-05  (-0.8901429E-05)
 number of electron      25.9999997 magnetization 
 augmentation part       -2.4141996 magnetization 

 Broyden mixing:
  rms(total) = 0.73769E-03    rms(broyden)= 0.73761E-03
  rms(prec ) = 0.97468E-03
  weight for this iteration     100.00

 eigenvalues of (default mixing * dielectric matrix)
  average eigenvalue GAMMA=   1.7901
  3.9488  2.6959  2.4146  0.5170  0.9716  0.9716  1.4007  1.4007

 Free energy of the ion-electron system (eV)
  ---------------------------------------------------
  alpha Z        PSCENC =        13.74168504
  Ewald energy   TEWEN  =     20567.09771385
  -Hartree energ DENC   =    -22550.70423155
  -exchange      EXHF   =         0.00000000
  -V(xc)+E(xc)   XCENC  =        64.33287992
  PAW double counting   =      1889.17279980    -1857.60204842
  entropy T*S    EENTRO =         0.00000000
  eigenvalues    EBANDS =      -522.46633423
  atomic energy  EATOM  =      2375.65847088
  Solvation  Ediel_sol  =         0.00000000
  ---------------------------------------------------
  free energy    TOTEN  =       -20.76906471 eV

  energy without entropy =      -20.76906471  energy(sigma->0) =      -20.76906471


--------------------------------------------------------------------------------------------------------




----------------------------------------- Iteration    1(  14)  ---------------------------------------


    POTLOK:  cpu time    0.0290: real time    0.0291
    SETDIJ:  cpu time    0.0060: real time    0.0059
     EDDAV:  cpu time    1.8557: real time    1.8597
 BZINTS: Fermi energy: -3.742244; 26.000000 electrons
         Band energy:-521.638804;  BLOECHL correction:  0.000000
       DOS:  cpu time    0.0010: real time    0.0018
    CHARGE:  cpu time    0.0930: real time    0.0923
    MIXING:  cpu time    0.0010: real time    0.0013
    --------------------------------------------
      LOOP:  cpu time    1.9867: real time    1.9927

 eigenvalue-minimisations  :  2604
 total energy-change (2. order) :-0.1059833E-03  (-0.4250199E-05)
 number of electron      25.9999997 magnetization 
 augmentation part       -2.4140101 magnetization 

 Broyden mixing:
  rms(total) = 0.47109E-03    rms(broyden)= 0.47107E-03
  rms(prec ) = 0.55483E-03
  weight for this iteration     100.00

 eigenvalues of (default mixing * dielectric matrix)
  average eigenvalue GAMMA=   1.8962
  5.0733  2.7540  2.4737  0.5170  1.6622  1.6622  1.0124  0.9554  0.9554

 Free energy of the ion-electron system (eV)
  ---------------------------------------------------
  alpha Z        PSCENC =        13.74168504
  Ewald energy   TEWEN  =     20567.09771385
  -Hartree energ DENC   =    -22551.53492931
  -exchange      EXHF   =         0.00000000
[...]
      LOOP:  cpu time    2.7836: real time    2.7871

 Broyden mixing:
  rms(total) = 0.34299E-04    rms(broyden)= 0.34287E-04
  rms(prec ) = 0.41465E-04
  weight for this iteration     100.00

 eigenvalues of (default mixing * dielectric matrix)
  average eigenvalue GAMMA=   2.2730
  6.7494  5.9007  3.0239  3.0239  2.0039  2.0039  1.3384  0.7671  1.2080  1.0380
  0.9704  0.9704  0.5516

 Free energy of the ion-electron system (eV)
  ---------------------------------------------------
  -Hartree energ DENC   =        -0.13602944
  -V(xc)+E(xc)   XCENC  =         0.00322999
  PAW double counting   =         0.00492679       -0.00488314
  entropy T*S    EENTRO =         0.00000000
  eigenvalues    EBANDS =        -0.03694621
  ---------------------------------------------------
  free energy    TOTEN  =        -0.16970201 eV

  energy without entropy =       -0.16970201


----------------------------------------- Iteration    3(  16)  ---------------------------------------


   POT+DIJ:  cpu time    0.0740: real time    0.0744
    HAMIL1:  cpu time    0.3949: real time    0.3949
    LRDIAG:  cpu time    0.0690: real time    0.0688
    LRDIIS:  cpu time    1.8327: real time    1.8333
    LRDIAG:  cpu time    0.0630: real time    0.0635
    MIXING:  cpu time    0.0020: real time    0.0015
    --------------------------------------------
      LOOP:  cpu time    2.6706: real time    2.6742

 Broyden mixing:
  rms(total) = 0.17943E-04    rms(broyden)= 0.17918E-04
  rms(prec ) = 0.22175E-04
  weight for this iteration     100.00

 eigenvalues of (default mixing * dielectric matrix)
  average eigenvalue GAMMA=   2.3577
  7.2155  6.2898  3.3286  3.3286  2.1246  2.1246  1.7454  1.4730  0.7671  1.0798
  0.9788  1.0017  1.0017  0.5493

 Free energy of the ion-electron system (eV)
  ---------------------------------------------------
  -Hartree energ DENC   =        -0.13601691
  -V(xc)+E(xc)   XCENC  =         0.00322867
  PAW double counting   =         0.00493176       -0.00488791
  entropy T*S    EENTRO =         0.00000000
  eigenvalues    EBANDS =        -0.03695059
  ---------------------------------------------------
  free energy    TOTEN  =        -0.16969498 eV

  energy without entropy =       -0.16969498


----------------------------------------- Iteration    3(  17)  ---------------------------------------


   POT+DIJ:  cpu time    0.0760: real time    0.0764
    HAMIL1:  cpu time    0.3989: real time    0.3987
    LRDIAG:  cpu time    0.0680: real time    0.0686
    LRDIIS:  cpu time    1.7907: real time    1.7906
    LRDIAG:  cpu time    0.0630: real time    0.0634
    MIXING:  cpu time    0.0010: real time    0.0015
    --------------------------------------------
      LOOP:  cpu time    2.6426: real time    2.6453

 Broyden mixing:
  rms(total) = 0.80678E-05    rms(broyden)= 0.80674E-05
  rms(prec ) = 0.99217E-05
  weight for this iteration     100.00

 eigenvalues of (default mixing * dielectric matrix)
  average eigenvalue GAMMA=   2.3599
  7.5875  6.5498  3.5384  3.5384  2.2809  2.2809  1.7380  1.4356  0.7671  1.1093
  1.1093  0.9836  0.9836  0.9458  0.5507

 Free energy of the ion-electron system (eV)
  ---------------------------------------------------
  -Hartree energ DENC   =        -0.13602491
  -V(xc)+E(xc)   XCENC  =         0.00322830
  PAW double counting   =         0.00493050       -0.00488671
  entropy T*S    EENTRO =         0.00000000
  eigenvalues    EBANDS =        -0.03693763
  ---------------------------------------------------
  free energy    TOTEN  =        -0.16969045 eV

  energy without entropy =       -0.16969045


----------------------------------------- Iteration    3(  18)  ---------------------------------------


   POT+DIJ:  cpu time    0.0760: real time    0.0771
    HAMIL1:  cpu time    0.3949: real time    0.3953
    LRDIAG:  cpu time    0.0690: real time    0.0692
    LRDIIS:  cpu time    1.9007: real time    1.9018
    LRDIAG:  cpu time    0.0700: real time    0.0692
    MIXING:  cpu time    0.0020: real time    0.0016
    --------------------------------------------
      LOOP:  cpu time    2.7566: real time    2.7614

 Broyden mixing:
  rms(total) = 0.49960E-05    rms(broyden)= 0.49958E-05
  rms(prec ) = 0.61221E-05
  weight for this iteration     100.00

 eigenvalues of (default mixing * dielectric matrix)
  average eigenvalue GAMMA=   2.4603
  8.0506  6.9212  4.2074  3.6249  2.4794  2.4794  1.9276  1.9276  1.4310  0.7671
  1.0985  1.0052  1.0052  0.9578  0.9309  0.5510

 Free energy of the ion-electron system (eV)
  ---------------------------------------------------
  -Hartree energ DENC   =        -0.13602574
  -V(xc)+E(xc)   XCENC  =         0.00322780
  PAW double counting   =         0.00492961       -0.00488580
  entropy T*S    EENTRO =         0.00000000
  eigenvalues    EBANDS =        -0.03693597
  ---------------------------------------------------
  free energy    TOTEN  =        -0.16969010 eV

  energy without entropy =       -0.16969010


----------------------------------------- Iteration    3(  19)  ---------------------------------------


   POT+DIJ:  cpu time    0.0790: real time    0.0795
    HAMIL1:  cpu time    0.3919: real time    0.3927
    LRDIAG:  cpu time    0.0700: real time    0.0696
    LRDIIS:  cpu time    1.8947: real time    1.8956
    LRDIAG:  cpu time    0.0630: real time    0.0636
    MIXING:  cpu time    0.0020: real time    0.0016
    --------------------------------------------
      LOOP:  cpu time    2.7306: real time    2.7343

 Broyden mixing:
  rms(total) = 0.22819E-05    rms(broyden)= 0.22819E-05
  rms(prec ) = 0.27570E-05
  weight for this iteration     100.00

 eigenvalues of (default mixing * dielectric matrix)
  average eigenvalue GAMMA=   2.4982
  8.3352  7.0963  4.6654  3.8136  2.7477  2.7477  1.8901  1.8901  1.4861  1.4861
  0.7671  1.0916  0.9889  0.9889  0.9793  0.9446  0.5509

 Free energy of the ion-electron system (eV)
  ---------------------------------------------------
  -Hartree energ DENC   =        -0.13602647
  -V(xc)+E(xc)   XCENC  =         0.00322731
  PAW double counting   =         0.00492829       -0.00488448
  entropy T*S    EENTRO =         0.00000000
  eigenvalues    EBANDS =        -0.03693557
  ---------------------------------------------------
  free energy    TOTEN  =        -0.16969092 eV

  energy without entropy =       -0.16969092


----------------------------------------- Iteration    3(  20)  ---------------------------------------


   POT+DIJ:  cpu time    0.0770: real time    0.0772
    HAMIL1:  cpu time    0.3939: real time    0.3954
    LRDIAG:  cpu time    0.0700: real time    0.0697
    LRDIIS:  cpu time    1.9527: real time    1.9527
    LRDIAG:  cpu time    0.0630: real time    0.0636
    MIXING:  cpu time    0.0020: real time    0.0018
    --------------------------------------------
      LOOP:  cpu time    2.7936: real time    2.7981

 Broyden mixing:
  rms(total) = 0.15305E-05    rms(broyden)= 0.15304E-05
  rms(prec ) = 0.17528E-05
  weight for this iteration     100.00

 eigenvalues of (default mixing * dielectric matrix)
  average eigenvalue GAMMA=   2.5505
  8.5078  7.3341  4.9525  4.2721  2.9489  2.9489  2.1646  2.1646  1.8025  1.4274
  0.7671  1.0819  1.0819  0.9970  0.9970  0.9549  0.9549  0.5509

 Free energy of the ion-electron system (eV)
  ---------------------------------------------------
  -Hartree energ DENC   =        -0.13602632
  -V(xc)+E(xc)   XCENC  =         0.00322719
  PAW double counting   =         0.00492954       -0.00488577
  entropy T*S    EENTRO =         0.00000000
  eigenvalues    EBANDS =        -0.03693575
  ---------------------------------------------------
  free energy    TOTEN  =        -0.16969111 eV

  energy without entropy =       -0.16969111


----------------------------------------- Iteration    3(  21)  ---------------------------------------


   POT+DIJ:  cpu time    0.0770: real time    0.0774
    HAMIL1:  cpu time    0.3949: real time    0.3951
    LRDIAG:  cpu time    0.0690: real time    0.0688
    LRDIIS:  cpu time    1.9767: real time    1.9776
    LRDIAG:  cpu time    0.0640: real time    0.0641
    MIXING:  cpu time    0.0020: real time    0.0018
    --------------------------------------------
      LOOP:  cpu time    2.8196: real time    2.8230

 Broyden mixing:
  rms(total) = 0.67756E-06    rms(broyden)= 0.67747E-06
  rms(prec ) = 0.81293E-06
  weight for this iteration     100.00

 eigenvalues of (default mixing * dielectric matrix)
  average eigenvalue GAMMA=   2.5872
  8.5736  7.5250  4.8972  4.8972  3.1514  3.1514  2.3537  2.1266  1.8666  1.8666
  1.4263  0.7671  1.1097  1.0045  1.0045  0.9650  0.9598  0.9598  0.5509

 Free energy of the ion-electron system (eV)
  ---------------------------------------------------
  -Hartree energ DENC   =        -0.13602625
  -V(xc)+E(xc)   XCENC  =         0.00322715
  PAW double counting   =         0.00492985       -0.00488606
  entropy T*S    EENTRO =         0.00000000
  eigenvalues    EBANDS =        -0.03693570
  ---------------------------------------------------
  free energy    TOTEN  =        -0.16969100 eV

  energy without entropy =       -0.16969100


------------------------ aborting loop because EDIFF is reached ----------------------------------------


 change of polarisation eV/A/(eV/A) component  3 :     0.000     0.000     0.331
 dielectric tensor                  component  3 :     0.000     0.000     1.125


--------------------------------------------------------------------------------------------------------


    FORLOC:  cpu time    0.0020: real time    0.0015
    FORNL :  cpu time    0.1580: real time    0.1582
    STRESS:  cpu time    2.4996: real time    2.5004
    FORCOR:  cpu time    0.0300: real time    0.0301
    OFIELD:  cpu time    0.0000: real time    0.0002

  Hirshfeld charges:
            ion         q(e)     
   ------------------------------
      1     Mo          0.311
      2     Se         -0.156
      3     Se         -0.156

  Tkatchenko/Scheffler method for vdW energy calculation
  ---------------------------------------------------------------------------------------------

  Parameters of vdW forcefield:
            C6ts              R0ts           ALPHAts        RELVOL
            (au)              (au)            (au)                
   ---------------------------------------------------------------
   Mo       1078.577          4.133         90.537          1.024
   Se        211.078          4.047         25.064          1.003
   Se        211.078          4.047         25.064          1.003
  Edisp (eV):   -0.62792
    FORVDW:  cpu time    0.0980: real time    0.0977
    FORLOC:  cpu time    0.0020: real time    0.0015
    FORNL :  cpu time    0.1580: real time    0.1582
    STRESS:  cpu time    2.4996: real time    2.4995
    FORCOR:  cpu time    0.0300: real time    0.0300
    OFIELD:  cpu time    0.0000: real time    0.0002

  Hirshfeld charges:
            ion         q(e)     
   ------------------------------
      1     Mo          0.311
      2     Se         -0.156
      3     Se         -0.156

  Tkatchenko/Scheffler method for vdW energy calculation
  ---------------------------------------------------------------------------------------------

  Parameters of vdW forcefield:
            C6ts              R0ts           ALPHAts        RELVOL
            (au)              (au)            (au)                
   ---------------------------------------------------------------
   Mo       1078.577          4.133         90.537          1.024
   Se        211.078          4.047         25.064          1.003
   Se        211.078          4.047         25.064          1.003
  Edisp (eV):   -0.62792
    FORVDW:  cpu time    0.0990: real time    0.0983
    FORNLD:  cpu time    1.9247: real time    1.9269

 PIEZOELECTRIC TENSOR FIELD DIRECTION 3  (e Angst)
 -----------------------------------------------------------------------------
    -0.00000 -0.00000  0.00000           ( -0.00000 -0.00000  0.00000)
     0.00000 -0.00000  0.00000           (  0.00000 -0.00000  0.00000)
    -0.00000  0.00000 -0.00000           (  0.00000  0.00000 -0.00000)

 PIEZOELECTRIC TENSOR FIELD DIRECTION 3  (C/m^2)
 -----------------------------------------------------------------------------
    -0.00000 -0.00000  0.00000
     0.00000 -0.00000  0.00000
    -0.00000  0.00000 -0.00000


      POSITION         DIRECTION 3           BORN EFFECTIVE CHARGE    (rigid.aug.   ionic)
 -----------------------------------------------------------------------------------------
     -0.00000      0.95833     25.00000     0.00000  0.00000 -0.12294 (  0.16888 14.00000)
      1.65987      1.91666     26.66903     0.00000  0.00000  0.05895 (  1.12260  6.00000)
      1.65987      1.91666     23.33097    -0.00000  0.00000  0.05895 (  1.12260  6.00000)
 -----------------------------------------------------------------------------------------
    total drift (improves with k-points):   0.00000  0.00000 -0.00503




--------------------------------------------------------------------------------------------------------


  LATTYP: Found a hexagonal cell.
 ALAT       =     3.3197487879
 C/A-ratio  =    15.0613806029
  
  Lattice vectors:
  
 A1 = (   3.3197487879,   0.0000000000,   0.0000000000)
 A2 = (  -1.6598743939,   2.8749867845,   0.0000000000)
 A3 = (   0.0000000000,   0.0000000000,  50.0000000000)


Analysis of symmetry for initial positions (statically):
=====================================================================
 Subroutine PRICEL returns:
 Original cell was already a primitive cell.
 

 Routine SETGRP: Setting up the symmetry group for a 
 hexagonal supercell.


 Subroutine GETGRP returns: Found 12 space group operations
 (whereof  4 operations were pure point group operations)
 out of a pool of 24 trial point group operations.


The static configuration has the point symmetry C_2v.
 The point group associated with its full space group is D_3h.


Analysis of symmetry for dynamics (positions and initial velocities):
=====================================================================
 Subroutine PRICEL returns:
 Original cell was already a primitive cell.
 

 Routine SETGRP: Setting up the symmetry group for a 
 hexagonal supercell.


 Subroutine GETGRP returns: Found 12 space group operations
 (whereof  4 operations were pure point group operations)
 out of a pool of 24 trial point group operations.


The dynamic configuration has the point symmetry C_2v.
 The point group associated with its full space group is D_3h.


 Subroutine INISYM returns: Found 12 space group operations
 (whereof  4 operations are pure point group operations),
 and found     1 'primitive' translations



 MACROSCOPIC STATIC DIELECTRIC TENSOR (including local field effects in DFT)
 ------------------------------------------------------
           3.021059    -0.000000    -0.000000
          -0.000000     3.021059    -0.000000
          -0.000000     0.000000     1.125375
 ------------------------------------------------------



--------------------------------------------------------------------------------------------------------


  LATTYP: Found a hexagonal cell.
 ALAT       =     3.3197487879
 C/A-ratio  =    15.0613806029
  
  Lattice vectors:
  
 A1 = (   3.3197487879,   0.0000000000,   0.0000000000)
 A2 = (  -1.6598743939,   2.8749867845,   0.0000000000)
 A3 = (   0.0000000000,   0.0000000000,  50.0000000000)


Analysis of symmetry for initial positions (statically):
=====================================================================
 Subroutine PRICEL returns:
 Original cell was already a primitive cell.
 

 Routine SETGRP: Setting up the symmetry group for a 
 hexagonal supercell.


 Subroutine GETGRP returns: Found 12 space group operations
 (whereof  4 operations were pure point group operations)
 out of a pool of 24 trial point group operations.


The static configuration has the point symmetry C_2v.
 The point group associated with its full space group is D_3h.


Analysis of symmetry for dynamics (positions and initial velocities):
=====================================================================
 Subroutine PRICEL returns:
 Original cell was already a primitive cell.
 

 Routine SETGRP: Setting up the symmetry group for a 
 hexagonal supercell.


 Subroutine GETGRP returns: Found 12 space group operations
 (whereof  4 operations were pure point group operations)
 out of a pool of 24 trial point group operations.


The dynamic configuration has the point symmetry C_2v.
 The point group associated with its full space group is D_3h.


 Subroutine INISYM returns: Found 12 space group operations
 (whereof  4 operations are pure point group operations),
 and found     1 'primitive' translations



--------------------------------------------------------------------------------------------------------




 MACROSCOPIC STATIC DIELECTRIC TENSOR (including local field effects in DFT)
 ------------------------------------------------------
           3.021059    -0.000000    -0.000000
          -0.000000     3.021059    -0.000000
          -0.000000     0.000000     1.125375
 ------------------------------------------------------


 PIEZOELECTRIC TENSOR  for field in x, y, z        (e  Angst)
          XX          YY          ZZ          XY          YZ          ZX
  --------------------------------------------------------------------------------
  x    -0.00280     0.00223    -0.00016    -1.61821     0.00000     0.00000
  y    -1.62067     1.62201     0.00053     0.00000     0.00000     0.00000
  z    -0.00000    -0.00000    -0.00000     0.00000     0.00000     0.00000

 PIEZOELECTRIC TENSOR  for field in x, y, z        (C/m^2)
          XX          YY          ZZ          XY          YZ          ZX
  --------------------------------------------------------------------------------
  x     0.00000     0.00000     0.00000    -0.05438     0.00000     0.00000
  y    -0.05438     0.05438     0.00000     0.00000     0.00000     0.00000
  z     0.00000     0.00000     0.00000    -0.00000     0.00000    -0.00000
 
 BORN EFFECTIVE CHARGES (in e, cummulative output)
 -------------------------------------------------
 ion    1
    1    -1.76359    -0.00062     0.00000
    2    -0.00000    -1.76388     0.00000
    3     0.00000     0.00000    -0.12294
 ion    2
    1     0.87730    -0.00033    -0.00016
    2     0.00000     0.87752     0.00045
    3     0.00000     0.00000     0.05895
 ion    3
    1     0.87730    -0.00033     0.00016
    2     0.00000     0.87752    -0.00045
    3    -0.00000     0.00000     0.05895


--------------------------------------------------------------------------------------------------------


 writing wavefunctions
     LOOP+:  cpu time  659.6787: real time  661.1503
    4ORBIT:  cpu time    0.0000: real time    0.0000
 BZINTS: Fermi energy: -3.860381; 26.000000 electrons
         Band energy:-520.960515;  BLOECHL correction:  0.000000

 total amount of memory used by VASP on root node   216185. kBytes
========================================================================

   base      :      30000. kBytes
   nonl-proj :     171601. kBytes
   fftplans  :       2116. kBytes
   grid      :       8000. kBytes
   one-center:        242. kBytes
   wavefun   :       4226. kBytes
 
  
  
 General timing and accounting informations for this job:
 ========================================================
  
                  Total CPU time used (sec):      661.728
                            User time (sec):      645.456
                          System time (sec):       16.273
                         Elapsed time (sec):      664.535
  
                   Maximum memory used (kb):      958716.
                   Average memory used (kb):           0.
  
                          Minor page faults:      3558707
                          Major page faults:            9
                 Voluntary context switches:         4323
