   6   6   0   0
  0.9095462E+02  0.3550076E-09  0.3550076E-09  0.5000000E-08  0.5000000E-15
  1.000000000000000E-004
  CAR 
 unknown system                          
     13.27488365    -79.33145346  301     -1.07909860      1.00000000
    -79.331  0.0000E+00  0.0000E+00
    -79.023  0.0000E+00  0.0000E+00
    -78.714  0.0000E+00  0.0000E+00
    -78.405  0.0000E+00  0.0000E+00
    -78.097  0.0000E+00  0.0000E+00
    -77.788  0.0000E+00  0.0000E+00
    -77.479  0.0000E+00  0.0000E+00
    -77.171  0.0000E+00  0.0000E+00
    -76.862  0.0000E+00  0.0000E+00
    -76.553  0.0000E+00  0.0000E+00
    -76.245  0.0000E+00  0.0000E+00
    -75.936  0.0000E+00  0.0000E+00
    -75.627  0.0000E+00  0.0000E+00
    -75.319  0.0000E+00  0.0000E+00
    -75.010  0.0000E+00  0.4000E+01
    -74.701  0.0000E+00  0.4000E+01
    -74.392  0.0000E+00  0.4000E+01
    -74.084  0.0000E+00  0.4000E+01
    -73.775  0.0000E+00  0.4000E+01
    -73.466  0.0000E+00  0.4000E+01
    -73.158  0.0000E+00  0.4000E+01
    -72.849  0.0000E+00  0.4000E+01
    -72.540  0.0000E+00  0.4000E+01
    -72.232  0.0000E+00  0.4000E+01
    -71.923  0.0000E+00  0.4000E+01
    -71.614  0.0000E+00  0.4000E+01
    -71.306  0.0000E+00  0.4000E+01
    -70.997  0.0000E+00  0.4000E+01
    -70.688  0.0000E+00  0.4000E+01
    -70.380  0.0000E+00  0.4000E+01
    -70.071  0.0000E+00  0.4000E+01
    -69.762  0.0000E+00  0.4000E+01
    -69.453  0.0000E+00  0.4000E+01
    -69.145  0.0000E+00  0.4000E+01
    -68.836  0.0000E+00  0.4000E+01
    -68.527  0.0000E+00  0.4000E+01
    -68.219  0.0000E+00  0.4000E+01
    -67.910  0.0000E+00  0.4000E+01
    -67.601  0.0000E+00  0.4000E+01
    -67.293  0.0000E+00  0.4000E+01
    -66.984  0.0000E+00  0.4000E+01
    -66.675  0.0000E+00  0.4000E+01
    -66.367  0.0000E+00  0.4000E+01
    -66.058  0.0000E+00  0.4000E+01
    -65.749  0.0000E+00  0.4000E+01
    -65.441  0.0000E+00  0.4000E+01
    -65.132  0.0000E+00  0.4000E+01
    -64.823  0.0000E+00  0.4000E+01
    -64.514  0.0000E+00  0.4000E+01
    -64.206  0.0000E+00  0.4000E+01
    -63.897  0.0000E+00  0.4000E+01
    -63.588  0.0000E+00  0.4000E+01
    -63.280  0.0000E+00  0.4000E+01
    -62.971  0.0000E+00  0.4000E+01
    -62.662  0.0000E+00  0.4000E+01
    -62.354  0.0000E+00  0.4000E+01
    -62.045  0.0000E+00  0.4000E+01
    -61.736  0.0000E+00  0.4000E+01
    -61.428  0.0000E+00  0.4000E+01
    -61.119  0.0000E+00  0.4000E+01
    -60.810  0.0000E+00  0.4000E+01
    -60.501  0.0000E+00  0.4000E+01
    -60.193  0.0000E+00  0.4000E+01
    -59.884  0.0000E+00  0.4000E+01
    -59.575  0.0000E+00  0.4000E+01
    -59.267  0.0000E+00  0.4000E+01
    -58.958  0.0000E+00  0.4000E+01
    -58.649  0.0000E+00  0.4000E+01
    -58.341  0.0000E+00  0.4000E+01
    -58.032  0.0000E+00  0.4000E+01
    -57.723  0.0000E+00  0.4000E+01
    -57.415  0.0000E+00  0.4000E+01
    -57.106  0.0000E+00  0.4000E+01
    -56.797  0.0000E+00  0.4000E+01
    -56.489  0.0000E+00  0.4000E+01
    -56.180  0.0000E+00  0.4000E+01
    -55.871  0.0000E+00  0.4000E+01
    -55.562  0.0000E+00  0.4000E+01
    -55.254  0.0000E+00  0.4000E+01
    -54.945  0.0000E+00  0.4000E+01
    -54.636  0.0000E+00  0.4000E+01
    -54.328  0.0000E+00  0.4000E+01
    -54.019  0.0000E+00  0.4000E+01
    -53.710  0.0000E+00  0.4000E+01
    -53.402  0.0000E+00  0.4000E+01
    -53.093  0.0000E+00  0.4000E+01
    -52.784  0.0000E+00  0.4000E+01
    -52.476  0.0000E+00  0.4000E+01
    -52.167  0.0000E+00  0.4000E+01
    -51.858  0.0000E+00  0.4000E+01
    -51.550  0.0000E+00  0.4000E+01
    -51.241  0.0000E+00  0.4000E+01
    -50.932  0.0000E+00  0.4000E+01
    -50.623  0.0000E+00  0.4000E+01
    -50.315  0.0000E+00  0.4000E+01
    -50.006  0.0000E+00  0.4000E+01
    -49.697  0.0000E+00  0.4000E+01
    -49.389  0.0000E+00  0.4000E+01
    -49.080  0.0000E+00  0.4000E+01
    -48.771  0.0000E+00  0.4000E+01
    -48.463  0.0000E+00  0.4000E+01
    -48.154  0.0000E+00  0.4000E+01
    -47.845  0.0000E+00  0.4000E+01
    -47.537  0.0000E+00  0.4000E+01
    -47.228  0.0000E+00  0.4000E+01
    -46.919  0.0000E+00  0.4000E+01
    -46.611  0.0000E+00  0.4000E+01
    -46.302  0.0000E+00  0.4000E+01
    -45.993  0.0000E+00  0.4000E+01
    -45.684  0.0000E+00  0.4000E+01
    -45.376  0.0000E+00  0.4000E+01
    -45.067  0.0000E+00  0.4000E+01
    -44.758  0.0000E+00  0.4000E+01
    -44.450  0.0000E+00  0.4000E+01
    -44.141  0.0000E+00  0.4000E+01
    -43.832  0.0000E+00  0.4000E+01
    -43.524  0.0000E+00  0.4000E+01
    -43.215  0.0000E+00  0.4000E+01
    -42.906  0.0000E+00  0.4000E+01
    -42.598  0.0000E+00  0.4000E+01
    -42.289  0.0000E+00  0.4000E+01
    -41.980  0.0000E+00  0.4000E+01
    -41.672  0.0000E+00  0.4000E+01
    -41.363  0.0000E+00  0.4000E+01
    -41.054  0.0000E+00  0.4000E+01
    -40.745  0.0000E+00  0.4000E+01
    -40.437  0.0000E+00  0.4000E+01
    -40.128  0.0000E+00  0.4000E+01
    -39.819  0.0000E+00  0.4000E+01
    -39.511  0.0000E+00  0.4000E+01
    -39.202  0.0000E+00  0.1600E+02
    -38.893  0.0000E+00  0.1600E+02
    -38.585  0.0000E+00  0.1600E+02
    -38.276  0.0000E+00  0.1600E+02
    -37.967  0.0000E+00  0.1600E+02
    -37.659  0.0000E+00  0.1600E+02
    -37.350  0.0000E+00  0.1600E+02
    -37.041  0.0000E+00  0.1600E+02
    -36.733  0.0000E+00  0.1600E+02
    -36.424  0.0000E+00  0.1600E+02
    -36.115  0.0000E+00  0.1600E+02
    -35.806  0.0000E+00  0.1600E+02
    -35.498  0.0000E+00  0.1600E+02
    -35.189  0.0000E+00  0.1600E+02
    -34.880  0.0000E+00  0.1600E+02
    -34.572  0.0000E+00  0.1600E+02
    -34.263  0.0000E+00  0.1600E+02
    -33.954  0.0000E+00  0.1600E+02
    -33.646  0.0000E+00  0.1600E+02
    -33.337  0.0000E+00  0.1600E+02
    -33.028  0.0000E+00  0.1600E+02
    -32.720  0.0000E+00  0.1600E+02
    -32.411  0.0000E+00  0.1600E+02
    -32.102  0.0000E+00  0.1600E+02
    -31.794  0.0000E+00  0.1600E+02
    -31.485  0.0000E+00  0.1600E+02
    -31.176  0.0000E+00  0.1600E+02
    -30.867  0.0000E+00  0.1600E+02
    -30.559  0.0000E+00  0.1600E+02
    -30.250  0.0000E+00  0.1600E+02
    -29.941  0.0000E+00  0.1600E+02
    -29.633  0.0000E+00  0.1600E+02
    -29.324  0.0000E+00  0.1600E+02
    -29.015  0.0000E+00  0.1600E+02
    -28.707  0.0000E+00  0.1600E+02
    -28.398  0.0000E+00  0.1600E+02
    -28.089  0.0000E+00  0.1600E+02
    -27.781  0.0000E+00  0.1600E+02
    -27.472  0.0000E+00  0.1600E+02
    -27.163  0.0000E+00  0.1600E+02
    -26.855  0.0000E+00  0.1600E+02
    -26.546  0.0000E+00  0.1600E+02
    -26.237  0.0000E+00  0.1600E+02
    -25.928  0.0000E+00  0.1600E+02
    -25.620  0.0000E+00  0.1600E+02
    -25.311  0.0000E+00  0.1600E+02
    -25.002  0.0000E+00  0.1600E+02
    -24.694  0.0000E+00  0.1600E+02
    -24.385  0.0000E+00  0.1600E+02
    -24.076  0.0000E+00  0.1600E+02
    -23.768  0.0000E+00  0.1600E+02
    -23.459  0.0000E+00  0.1600E+02
    -23.150  0.0000E+00  0.1600E+02
    -22.842  0.0000E+00  0.1600E+02
    -22.533  0.0000E+00  0.1600E+02
    -22.224  0.0000E+00  0.1600E+02
    -21.916  0.0000E+00  0.1600E+02
    -21.607  0.0000E+00  0.1600E+02
    -21.298  0.0000E+00  0.1600E+02
    -20.989  0.0000E+00  0.1600E+02
    -20.681  0.0000E+00  0.1600E+02
    -20.372  0.0000E+00  0.1600E+02
    -20.063  0.0000E+00  0.1600E+02
    -19.755  0.0000E+00  0.1600E+02
    -19.446  0.0000E+00  0.1600E+02
    -19.137  0.0000E+00  0.1600E+02
    -18.829  0.0000E+00  0.1600E+02
    -18.520  0.0000E+00  0.1600E+02
    -18.211  0.0000E+00  0.1600E+02
    -17.903  0.0000E+00  0.1600E+02
    -17.594  0.0000E+00  0.1600E+02
    -17.285  0.0000E+00  0.1600E+02
    -16.977  0.0000E+00  0.1600E+02
    -16.668  0.0000E+00  0.1600E+02
    -16.359  0.0000E+00  0.1600E+02
    -16.050  0.0000E+00  0.1600E+02
    -15.742  0.0000E+00  0.1600E+02
    -15.433  0.0000E+00  0.1600E+02
    -15.124  0.0000E+00  0.1600E+02
    -14.816  0.0000E+00  0.1600E+02
    -14.507  0.0000E+00  0.1600E+02
    -14.198  0.4340E+00  0.1602E+02
    -13.890  0.1035E+01  0.1629E+02
    -13.581  0.1108E+01  0.1663E+02
    -13.272  0.1196E+01  0.1698E+02
    -12.964  0.2096E+01  0.1749E+02
    -12.655  0.3246E+01  0.1837E+02
    -12.346  0.4061E+01  0.1948E+02
    -12.038  0.6031E+01  0.2112E+02
    -11.729  0.5739E+01  0.2295E+02
    -11.420  0.0000E+00  0.2400E+02
    -11.111  0.0000E+00  0.2400E+02
    -10.803  0.0000E+00  0.2400E+02
    -10.494  0.0000E+00  0.2400E+02
    -10.185  0.0000E+00  0.2400E+02
     -9.877  0.0000E+00  0.2400E+02
     -9.568  0.0000E+00  0.2400E+02
     -9.259  0.0000E+00  0.2400E+02
     -8.951  0.0000E+00  0.2400E+02
     -8.642  0.0000E+00  0.2400E+02
     -8.333  0.0000E+00  0.2400E+02
     -8.025  0.0000E+00  0.2400E+02
     -7.716  0.0000E+00  0.2400E+02
     -7.407  0.0000E+00  0.2400E+02
     -7.099  0.8755E+00  0.2403E+02
     -6.790  0.2226E+01  0.2459E+02
     -6.481  0.2836E+01  0.2535E+02
     -6.172  0.2775E+01  0.2654E+02
     -5.864  0.8529E+01  0.2790E+02
     -5.555  0.3631E+01  0.2948E+02
     -5.246  0.1713E+01  0.3038E+02
     -4.938  0.6482E+01  0.3169E+02
     -4.629  0.7526E+01  0.3348E+02
     -4.320  0.3750E+01  0.3479E+02
     -4.012  0.5180E+01  0.3632E+02
     -3.703  0.5079E+01  0.3800E+02
     -3.394  0.3646E+01  0.3949E+02
     -3.086  0.3231E+01  0.4050E+02
     -2.777  0.8675E+01  0.4341E+02
     -2.468  0.9126E+01  0.4573E+02
     -2.160  0.3601E+01  0.4739E+02
     -1.851  0.6337E+01  0.4877E+02
     -1.542  0.5006E+01  0.5106E+02
     -1.233  0.1357E+01  0.5190E+02
     -0.925  0.0000E+00  0.5200E+02
     -0.616  0.0000E+00  0.5200E+02
     -0.307  0.0000E+00  0.5200E+02
      0.001  0.1953E+01  0.5207E+02
      0.310  0.4648E+01  0.5311E+02
      0.619  0.2673E+01  0.5529E+02
      0.927  0.7361E+01  0.5819E+02
      1.236  0.5444E+01  0.6019E+02
      1.545  0.4933E+01  0.6206E+02
      1.853  0.1929E+01  0.6330E+02
      2.162  0.4049E+01  0.6424E+02
      2.471  0.6680E+01  0.6605E+02
      2.779  0.7115E+01  0.6758E+02
      3.088  0.2073E+01  0.6896E+02
      3.397  0.4775E+01  0.6975E+02
      3.706  0.3145E+01  0.7083E+02
      4.014  0.3603E+01  0.7200E+02
      4.323  0.3409E+01  0.7315E+02
      4.632  0.5191E+01  0.7476E+02
      4.940  0.6422E+01  0.7673E+02
      5.249  0.9878E+01  0.7903E+02
      5.558  0.7859E+01  0.8118E+02
      5.866  0.8349E+01  0.8362E+02
      6.175  0.1173E+02  0.8628E+02
      6.484  0.8547E+01  0.8921E+02
      6.792  0.1024E+02  0.9244E+02
      7.101  0.8699E+01  0.9579E+02
      7.410  0.9688E+01  0.9885E+02
      7.719  0.7800E+01  0.1021E+03
      8.027  0.9423E+01  0.1051E+03
      8.336  0.8587E+01  0.1082E+03
      8.645  0.6341E+01  0.1107E+03
      8.953  0.2586E+01  0.1118E+03
      9.262  0.0000E+00  0.1120E+03
      9.571  0.0000E+00  0.1120E+03
      9.879  0.0000E+00  0.1120E+03
     10.188  0.0000E+00  0.1120E+03
     10.497  0.0000E+00  0.1120E+03
     10.805  0.0000E+00  0.1120E+03
     11.114  0.0000E+00  0.1120E+03
     11.423  0.0000E+00  0.1120E+03
     11.731  0.0000E+00  0.1120E+03
     12.040  0.0000E+00  0.1120E+03
     12.349  0.0000E+00  0.1120E+03
     12.658  0.0000E+00  0.1120E+03
     12.966  0.0000E+00  0.1120E+03
     13.275  0.0000E+00  0.1120E+03
