       N       E                     dE             d eps       ncg     rms          rms(c)
DAV:   1     0.213807858133E+03    0.21381E+03   -0.20427E+04  6132   0.479E+02
DAV:   2    -0.376635432500E+02   -0.25147E+03   -0.24296E+03  7168   0.144E+02
DAV:   3    -0.463971253443E+02   -0.87336E+01   -0.85707E+01  4984   0.279E+01
DAV:   4    -0.466181881714E+02   -0.22106E+00   -0.22076E+00  6412   0.463E+00
DAV:   5    -0.466235075090E+02   -0.53193E-02   -0.53183E-02  5404   0.633E-01    0.110E+02
DAV:   6    -0.438539335049E+02    0.27696E+01   -0.12217E+01  4480   0.101E+01    0.977E+01
DAV:   7    -0.601763861618E+02   -0.16322E+02   -0.50611E+01  5712   0.217E+01    0.125E+02
DAV:   8    -0.426760261792E+02    0.17500E+02   -0.34040E+01  6076   0.159E+01    0.218E+00
DAV:   9    -0.429939402915E+02   -0.31791E+00   -0.33183E+00  4760   0.390E+00    0.933E+00
DAV:  10    -0.429976660855E+02   -0.37258E-02   -0.53293E-02  7168   0.643E-01    0.733E+00
DAV:  11    -0.429896217442E+02    0.80443E-02   -0.64581E-03  5768   0.286E-01    0.218E+00
DAV:  12    -0.429871679736E+02    0.24538E-02   -0.43535E-03  6300   0.176E-01    0.557E-01
DAV:  13    -0.429866756236E+02    0.49235E-03   -0.71066E-04  5964   0.922E-02    0.173E-01
DAV:  14    -0.429864236341E+02    0.25199E-03   -0.15636E-04  5964   0.414E-02    0.525E-02
DAV:  15    -0.429864281976E+02   -0.45635E-05   -0.40193E-05  5572   0.188E-02    0.150E-01
DAV:  16    -0.429864695302E+02   -0.41333E-04   -0.38571E-05  5544   0.149E-02    0.216E-02
DAV:  17    -0.429865618929E+02   -0.92363E-04   -0.12790E-05  4592   0.834E-03    0.406E-02
DAV:  18    -0.429866833900E+02   -0.12150E-03   -0.76948E-06  4648   0.694E-03    0.507E-03
DAV:  19    -0.429867185017E+02   -0.35112E-04   -0.15477E-06  4928   0.351E-03    0.124E-02
DAV:  20    -0.429867544775E+02   -0.35976E-04   -0.46381E-07  4928   0.216E-03    0.539E-03
DAV:  21    -0.429867741276E+02   -0.19650E-04   -0.21984E-07  4760   0.145E-03    0.635E-03
DAV:  22    -0.429867832324E+02   -0.91047E-05   -0.10528E-07  4788   0.864E-04    0.699E-03
DAV:  23    -0.429867884390E+02   -0.52066E-05   -0.66435E-08  4956   0.710E-04    0.137E-03
DAV:  24    -0.429867903693E+02   -0.19303E-05   -0.99014E-09  4620   0.295E-04    0.956E-04
DAV:  25    -0.429867919963E+02   -0.16270E-05   -0.85947E-09  4480   0.268E-04    0.830E-04
DAV:  26    -0.429867926966E+02   -0.70032E-06   -0.22604E-09  4256   0.160E-04    0.655E-05
DAV:  27    -0.429867931753E+02   -0.47874E-06   -0.88481E-10  3864   0.122E-04    0.200E-04
DAV:  28    -0.429867934502E+02   -0.27489E-06   -0.26688E-10  3780   0.900E-05    0.717E-05
DAV:  29    -0.429867935352E+02   -0.85027E-07   -0.67672E-11  3724   0.466E-05    0.169E-05
DAV:  30    -0.429867935605E+02   -0.25287E-07   -0.21745E-11  3612   0.297E-05    0.706E-06
DAV:  31    -0.429867935644E+02   -0.39154E-08    0.12154E-11  4396   0.132E-05
   1 F= -.44664730E+02 E0= -.44664730E+02  d E =0.000000E+00
 Linear response reoptimize wavefunctions
DAV:   1    -0.429867935659E+02    0.16779E+01    0.31485E-11  3640   0.121E-05
DAV:   2    -0.429867935659E+02    0.43656E-10    0.21654E-11  4956   0.323E-06
 Linear response G [H, r] |phi>, progress :
  Direction:   1
       N       E                     dE             d eps       ncg     rms
RMM:   1    -0.253239282203E+03   -0.25324E+03   -0.29659E+03  5827   0.349E+02
RMM:   2    -0.270240830473E+03   -0.17002E+02   -0.24354E+02  9307   0.314E+01
RMM:   3    -0.270928636085E+03   -0.68781E+00   -0.16398E+01  9649   0.765E+00
RMM:   4    -0.271030208359E+03   -0.10157E+00   -0.72385E-01 10496   0.145E+00
RMM:   5    -0.271035100739E+03   -0.48924E-02   -0.51959E-02 10554   0.366E-01
RMM:   6    -0.271035537855E+03   -0.43712E-03   -0.31013E-03 11077   0.945E-02
RMM:   7    -0.271035575331E+03   -0.37475E-04   -0.31913E-04 11234   0.277E-02
RMM:   8    -0.271035578389E+03   -0.30585E-05   -0.21967E-05 11634   0.861E-03
RMM:   9    -0.271035579258E+03   -0.86928E-06   -0.11577E-05 11736   0.368E-03
RMM:  10    -0.271035578717E+03    0.54129E-06   -0.37469E-06 11810   0.228E-03
RMM:  11    -0.271035578747E+03   -0.29868E-07   -0.38998E-06 11555   0.197E-03
RMM:  12    -0.271035579319E+03   -0.57176E-06   -0.95972E-06 11494   0.190E-03
RMM:  13    -0.271035578987E+03    0.33217E-06   -0.62669E-06 11267   0.188E-03
 Linear response G [H, r] |phi>, progress :
  Direction:   2
       N       E                     dE             d eps       ncg     rms
RMM:   1    -0.244566677372E+03   -0.24457E+03   -0.30771E+03  5984   0.347E+02
RMM:   2    -0.286856820745E+03   -0.42290E+02   -0.21520E+02  9082   0.307E+01
RMM:   3    -0.286931981059E+03   -0.75160E-01   -0.11185E+01  9501   0.697E+00
RMM:   4    -0.287059970152E+03   -0.12799E+00   -0.52624E-01 10482   0.134E+00
RMM:   5    -0.287064509296E+03   -0.45391E-02   -0.35969E-02 10627   0.322E-01
RMM:   6    -0.287064796920E+03   -0.28762E-03   -0.19870E-03 11150   0.795E-02
RMM:   7    -0.287064817748E+03   -0.20827E-04   -0.19806E-04 11236   0.232E-02
RMM:   8    -0.287064820173E+03   -0.24256E-05   -0.15512E-05 11571   0.736E-03
RMM:   9    -0.287064820241E+03   -0.67450E-07   -0.21336E-06 11693   0.302E-03
RMM:  10    -0.287064820175E+03    0.65742E-07    0.27054E-07 11794   0.182E-03
RMM:  11    -0.287064820249E+03   -0.74133E-07   -0.34667E-07 11576   0.153E-03
RMM:  12    -0.287064820431E+03   -0.18157E-06   -0.21377E-06 11458   0.146E-03
RMM:  13    -0.287064820193E+03    0.23826E-06    0.24651E-07 11290   0.144E-03
 Linear response G [H, r] |phi>, progress :
  Direction:   3
       N       E                     dE             d eps       ncg     rms
RMM:   1    -0.262198807949E+03   -0.26220E+03   -0.32337E+03  5510   0.336E+02
RMM:   2    -0.282633562270E+03   -0.20435E+02   -0.20960E+02  9094   0.296E+01
RMM:   3    -0.283394572263E+03   -0.76101E+00   -0.11165E+01  9569   0.683E+00
RMM:   4    -0.283496876035E+03   -0.10230E+00   -0.40229E-01 10416   0.128E+00
RMM:   5    -0.283499436557E+03   -0.25605E-02   -0.29550E-02 10448   0.328E-01
RMM:   6    -0.283499595373E+03   -0.15882E-03   -0.15786E-03 10765   0.775E-02
RMM:   7    -0.283499605568E+03   -0.10195E-04   -0.13852E-04 10897   0.223E-02
RMM:   8    -0.283499606508E+03   -0.94043E-06   -0.92337E-06 11231   0.624E-03
RMM:   9    -0.283499606527E+03   -0.19189E-07   -0.10292E-06 11368   0.245E-03
RMM:  10    -0.283499606550E+03   -0.22228E-07   -0.21685E-07 11365   0.135E-03
RMM:  11    -0.283499606535E+03    0.15004E-07    0.20080E-08 11133   0.113E-03
RMM:  12    -0.283499606549E+03   -0.14504E-07   -0.10702E-07 11015   0.107E-03
RMM:  13    -0.283499606550E+03   -0.80070E-09   -0.11166E-07 10863   0.105E-03
 Linear response to external field (no local field effect), progress :
  Direction:   1
       N       E                     dE             d eps       ncg     rms          rms(c)
RMM:   1    -0.500468257409E+01   -0.50047E+01   -0.28892E+01 11158   0.517E+00
RMM:   2    -0.777821570836E+01   -0.27735E+01   -0.36551E-01  9183   0.140E+00
RMM:   3    -0.779344683609E+01   -0.15231E-01   -0.25560E-02  9913   0.293E-01
RMM:   4    -0.779398558242E+01   -0.53875E-03   -0.18131E-03 10394   0.743E-02
RMM:   5    -0.779401430874E+01   -0.28726E-04   -0.11798E-04 10313   0.187E-02
RMM:   6    -0.779401617489E+01   -0.18662E-05   -0.10198E-05 10018   0.546E-03
RMM:   7    -0.779401632081E+01   -0.14592E-06   -0.61926E-07  9899   0.140E-03
RMM:   8    -0.779401632895E+01   -0.81427E-08   -0.62000E-08  9727   0.417E-04
 Linear response to external field (no local field effect), progress :
  Direction:   2
       N       E                     dE             d eps       ncg     rms          rms(c)
RMM:   1    -0.567500689771E+01   -0.56750E+01   -0.33671E+01 11067   0.533E+00
RMM:   2    -0.778013690296E+01   -0.21051E+01   -0.36381E-01  9224   0.142E+00
RMM:   3    -0.779506965130E+01   -0.14933E-01   -0.21725E-02  9733   0.290E-01
RMM:   4    -0.779549484962E+01   -0.42520E-03   -0.13618E-03 10330   0.708E-02
RMM:   5    -0.779551966229E+01   -0.24813E-04   -0.86064E-05 10259   0.177E-02
RMM:   6    -0.779552119311E+01   -0.15308E-05   -0.80459E-06 10050   0.526E-03
RMM:   7    -0.779552133865E+01   -0.14555E-06   -0.59484E-07  9917   0.140E-03
RMM:   8    -0.779552134751E+01   -0.88594E-08   -0.58448E-08  9728   0.423E-04
 Linear response to external field (no local field effect), progress :
  Direction:   3
       N       E                     dE             d eps       ncg     rms          rms(c)
RMM:   1    -0.357916635542E+01   -0.35792E+01   -0.16466E+01 11045   0.490E+00
RMM:   2    -0.432880533952E+01   -0.74964E+00   -0.26915E-01  8986   0.122E+00
RMM:   3    -0.433731994143E+01   -0.85146E-02   -0.16336E-02  9669   0.264E-01
RMM:   4    -0.433760228752E+01   -0.28235E-03   -0.11510E-03 10133   0.678E-02
RMM:   5    -0.433761807164E+01   -0.15784E-04   -0.86688E-05 10047   0.180E-02
RMM:   6    -0.433761920694E+01   -0.11353E-05   -0.73338E-06  9777   0.516E-03
RMM:   7    -0.433761930295E+01   -0.96008E-07   -0.57174E-07  9706   0.141E-03
RMM:   8    -0.433761930971E+01   -0.67554E-08   -0.50037E-08  9548   0.411E-04
 Linear response to external field, progress :
  Direction:   1
       N       E                     dE             d eps       ncg     rms          rms(c)
RMM:   1    -0.532581718394E+01   -0.53258E+01   -0.31141E+01 27223   0.518E+00
RMM:   2    -0.777944805754E+01   -0.24536E+01   -0.35863E-01 22526   0.137E+00    0.446E+00
RMM:   3    -0.761986442806E+01    0.15958E+00   -0.14895E-01 20752   0.118E+00    0.255E+00
RMM:   4    -0.778288846818E+01   -0.16302E+00   -0.13148E-01 20027   0.118E+00    0.664E-01
RMM:   5    -0.784317762325E+01   -0.60289E-01   -0.21464E-03 20209   0.270E-01    0.665E-02
RMM:   6    -0.784758709033E+01   -0.44095E-02   -0.21949E-03 23048   0.506E-02    0.381E-02
RMM:   7    -0.784948654700E+01   -0.18995E-02    0.20756E-03 23153   0.177E-02    0.197E-02
RMM:   8    -0.785154095487E+01   -0.20544E-02   -0.11266E-03 21309   0.925E-03    0.414E-03
RMM:   9    -0.785200588709E+01   -0.46493E-03   -0.17110E-04 22238   0.373E-03    0.180E-03
RMM:  10    -0.785214931366E+01   -0.14343E-03   -0.19426E-05 21311   0.160E-03    0.611E-04
RMM:  11    -0.785220565234E+01   -0.56339E-04   -0.29603E-05 21821   0.592E-04    0.223E-04
RMM:  12    -0.785220712835E+01   -0.14760E-05    0.10599E-05 23283   0.160E-04    0.622E-05
RMM:  13    -0.785220748441E+01   -0.35605E-06    0.11734E-06 21327   0.517E-05    0.239E-05
RMM:  14    -0.785220656384E+01    0.92057E-06   -0.10976E-07 16615   0.252E-05    0.106E-05
RMM:  15    -0.785220630987E+01    0.25397E-06    0.15812E-07 13846   0.223E-05    0.298E-06
 Linear response to external field, progress :
  Direction:   2
       N       E                     dE             d eps       ncg     rms          rms(c)
RMM:   1    -0.537576806137E+01   -0.53758E+01   -0.31640E+01 27216   0.519E+00
RMM:   2    -0.777885054522E+01   -0.24031E+01   -0.36155E-01 22601   0.139E+00    0.446E+00
RMM:   3    -0.761989690080E+01    0.15895E+00   -0.14874E-01 21026   0.118E+00    0.255E+00
RMM:   4    -0.778283517982E+01   -0.16294E+00   -0.12777E-01 20307   0.118E+00    0.664E-01
RMM:   5    -0.784231885815E+01   -0.59484E-01    0.27007E-03 20593   0.272E-01    0.891E-02
RMM:   6    -0.784772563105E+01   -0.54068E-02   -0.87053E-03 23599   0.519E-02    0.534E-02
RMM:   7    -0.784821076052E+01   -0.48513E-03    0.20821E-03 24020   0.154E-02    0.259E-02
RMM:   8    -0.785124706656E+01   -0.30363E-02    0.56166E-04 19846   0.150E-02    0.617E-03
RMM:   9    -0.785192764218E+01   -0.68058E-03   -0.30779E-04 22438   0.393E-03    0.213E-03
RMM:  10    -0.785212661509E+01   -0.19897E-03    0.53544E-05 21786   0.184E-03    0.106E-03
RMM:  11    -0.785219475355E+01   -0.68138E-04   -0.57812E-05 21532   0.649E-04    0.506E-04
RMM:  12    -0.785219593191E+01   -0.11784E-05    0.11875E-05 22930   0.238E-04    0.186E-04
RMM:  13    -0.785220653238E+01   -0.10600E-04   -0.50869E-06 20672   0.105E-04    0.652E-05
RMM:  14    -0.785220484826E+01    0.16841E-05   -0.22619E-06 19885   0.448E-05    0.311E-05
RMM:  15    -0.785220428261E+01    0.56564E-06   -0.17757E-06 15311   0.230E-05    0.199E-05
RMM:  16    -0.785220422382E+01    0.58794E-07   -0.24566E-07 13996   0.224E-05    0.761E-06
 Linear response to external field, progress :
  Direction:   3
       N       E                     dE             d eps       ncg     rms          rms(c)
RMM:   1    -0.357916635542E+01   -0.35792E+01   -0.16466E+01 11045   0.490E+00
RMM:   2    -0.432880533952E+01   -0.74964E+00   -0.26915E-01  8986   0.122E+00    0.422E+00
RMM:   3    -0.990596120124E+00    0.33382E+01   -0.29395E+00  8426   0.259E+00    0.342E+00
RMM:   4    -0.648490067294E+00    0.34211E+00   -0.36680E-01  8076   0.875E-01    0.919E-01
RMM:   5    -0.584151689497E+00    0.64338E-01   -0.16716E-01  8285   0.353E-01    0.596E-01
RMM:   6    -0.539831732305E+00    0.44320E-01   -0.15432E-01  7639   0.341E-01    0.266E-01
RMM:   7    -0.527228837368E+00    0.12603E-01   -0.77489E-02  7165   0.137E-01    0.800E-02
RMM:   8    -0.521606647812E+00    0.56222E-02   -0.33994E-02  7378   0.587E-02    0.351E-02
RMM:   9    -0.519743088162E+00    0.18636E-02   -0.19007E-02  7033   0.322E-02    0.391E-02
RMM:  10    -0.518853994638E+00    0.88909E-03   -0.85160E-03  6735   0.266E-02    0.121E-02
RMM:  11    -0.518860167381E+00   -0.61727E-05   -0.44639E-03  7071   0.166E-02    0.638E-03
RMM:  12    -0.518951214453E+00   -0.91047E-04   -0.23645E-03  7150   0.116E-02    0.608E-03
RMM:  13    -0.518933120347E+00    0.18094E-04   -0.88393E-04  7498   0.577E-03    0.269E-03
RMM:  14    -0.518943134902E+00   -0.10015E-04   -0.36035E-04  7217   0.457E-03    0.129E-03
RMM:  15    -0.518914572939E+00    0.28562E-04    0.67466E-05  7682   0.258E-03    0.109E-03
RMM:  16    -0.518920060155E+00   -0.54872E-05   -0.12506E-04  7039   0.361E-03    0.394E-04
RMM:  17    -0.518863846811E+00    0.56213E-04    0.39578E-04  8252   0.105E-03    0.280E-04
RMM:  18    -0.518864591517E+00   -0.74471E-06    0.26471E-04  7371   0.116E-03    0.162E-04
RMM:  19    -0.518863195752E+00    0.13958E-05    0.26413E-04  8231   0.300E-04    0.154E-04
RMM:  20    -0.518860437784E+00    0.27580E-05    0.29093E-04  7352   0.362E-04    0.456E-05
RMM:  21    -0.518857845813E+00    0.25920E-05    0.31969E-04  7517   0.983E-05    0.280E-05
RMM:  22    -0.518856942697E+00    0.90312E-06    0.33279E-04  6924   0.981E-05    0.887E-06
