 vasp.5.4.1 24Jun15 (build Apr 13 2016 13:07:19) complex                        
  
 executed on           IFC91_ompi date 2019.09.14  02:43:04
 running on   28 total cores
 distrk:  each k-point on   28 cores,    1 groups
 distr:  one band on NCORES_PER_BAND=   1 cores,   28 groups


--------------------------------------------------------------------------------------------------------


 INCAR:
 POTCAR:    PAW_PBE W_sv_GW 23Mar2010             
 POTCAR:    PAW_PBE Te_GW 22Mar2012               

 ----------------------------------------------------------------------------- 
|                                                                             |
|           W    W    AA    RRRRR   N    N  II  N    N   GGGG   !!!           |
|           W    W   A  A   R    R  NN   N  II  NN   N  G    G  !!!           |
|           W    W  A    A  R    R  N N  N  II  N N  N  G       !!!           |
|           W WW W  AAAAAA  RRRRR   N  N N  II  N  N N  G  GGG   !            |
|           WW  WW  A    A  R   R   N   NN  II  N   NN  G    G                |
|           W    W  A    A  R    R  N    N  II  N    N   GGGG   !!!           |
|                                                                             |
|      For optimal performance we recommend to set                            |
|        NCORE= 4 - approx SQRT( number of cores)                             |
|      NCORE specifies how many cores store one orbital (NPAR=cpu/NCORE).     |
|      This setting can  greatly improve the performance of VASP for DFT.     |
|      The default, NPAR=number of cores might be grossly inefficient         |
|      on modern multi-core architectures or massively parallel machines.     |
|      Do your own testing !!!!                                               |
|      Unfortunately you need to use the default for GW and RPA calculations. |
|      (for HF NCORE is supported but not extensively tested yet)             |
|                                                                             |
 ----------------------------------------------------------------------------- 

 POTCAR:    PAW_PBE W_sv_GW 23Mar2010             
   VRHFIN =W: 5p6s5d                                                            
   LEXCH  = PE                                                                  
   EATOM  =  1863.8917 eV,  136.9922 Ry                                         
                                                                                
   TITEL  = PAW_PBE W_sv_GW 23Mar2010                                           
   LULTRA =        F    use ultrasoft PP ?                                      
   IUNSCR =        1    unscreen: 0-lin 1-nonlin 2-no                           
   RPACOR =    1.500    partial core radius                                     
   POMASS =  183.850; ZVAL   =   14.000    mass and valenz                      
   RCORE  =    2.300    outmost cutoff radius                                   
   RWIGS  =    2.600; RWIGS  =    1.376    wigner-seitz radius (au A)           
   ENMAX  =  317.132; ENMIN  =  237.849 eV                                      
   RCLOC  =    1.609    cutoff for local pot                                    
   LCOR   =        T    correct aug charges                                     
   LPAW   =        T    paw PP                                                  
   EAUG   =  807.757                                                            
   DEXC   =    0.000                                                            
   RMAX   =    2.349    core radius for proj-oper                               
   RAUG   =    1.300    factor for augmentation sphere                          
   RDEP   =    2.382    radius for radial grids                                 
   RDEPT  =    1.832    core radius for aug-charge                              
                                                                                
   Atomic configuration                                                         
   14 entries                                                                   
     n  l   j            E        occ.                                          
     1  0  0.50    -69464.1497   2.0000                                         
     2  0  0.50    -11984.7400   2.0000                                         
     2  1  1.50    -10478.3405   6.0000                                         
     3  0  0.50     -2757.5605   2.0000                                         
     3  1  1.50     -2311.6706   6.0000                                         
     3  2  2.50     -1799.5973  10.0000                                         
     4  0  0.50      -566.1609   2.0000                                         
     4  1  1.50      -419.9482   6.0000                                         
     4  2  2.50      -234.8191  10.0000                                         
     4  3  3.50       -29.7363  14.0000                                         
     5  0  0.50       -75.5905   2.0000                                         
     5  1  1.50       -39.9756   6.0000                                         
     5  2  2.50        -2.4479   6.0000                                         
     5  3  2.50        -1.3606   0.0000                                         
   Description                                                                  
     l       E           TYP  RCUT    TYP  RCUT                                 
     0    -75.5905419     23  1.500                                             
     0    -76.9511245     23  1.500                                             
     0    108.8466080     23  1.500                                             
     1    -39.9756040     23  1.800                                             
     1     68.0291300     23  1.800                                             
     2     -2.4478587     23  2.150                                             
     2     -0.0030619     23  2.150                                             
     3      4.0817478     23  2.300                                             
  local pseudopotential read in
  partial core-charges read in
  partial kinetic energy density read in
  kinetic energy density of atom read in
  atomic valenz-charges read in
  non local Contribution for L=           0  read in
    real space projection operators read in
  non local Contribution for L=           0  read in
    real space projection operators read in
  non local Contribution for L=           0  read in
    real space projection operators read in
  non local Contribution for L=           1  read in
    real space projection operators read in
  non local Contribution for L=           1  read in
    real space projection operators read in
  non local Contribution for L=           2  read in
    real space projection operators read in
  non local Contribution for L=           2  read in
    real space projection operators read in
  non local Contribution for L=           3  read in
    real space projection operators read in
    PAW grid and wavefunctions read in
 
   number of l-projection  operators is LMAX  =           8
   number of lm-projection operators is LMMAX =          26
 
 POTCAR:    PAW_PBE Te_GW 22Mar2012               
   VRHFIN =Te: s2p4                                                             
   LEXCH  = PE                                                                  
   EATOM  =   223.2721 eV,   16.4100 Ry                                         
                                                                                
   TITEL  = PAW_PBE Te_GW 22Mar2012                                             
   LULTRA =        F    use ultrasoft PP ?                                      
   IUNSCR =        1    unscreen: 0-lin 1-nonlin 2-no                           
   RPACOR =    2.200    partial core radius                                     
   POMASS =  127.600; ZVAL   =    6.000    mass and valenz                      
   RCORE  =    2.600    outmost cutoff radius                                   
   RWIGS  =    2.900; RWIGS  =    1.535    wigner-seitz radius (au A)           
   ENMAX  =  174.982; ENMIN  =  131.236 eV                                      
   ICORE  =        3    local potential                                         
   LCOR   =        T    correct aug charges                                     
   LPAW   =        T    paw PP                                                  
   EAUG   =  368.792                                                            
   DEXC   =    0.000                                                            
   RMAX   =    2.665    core radius for proj-oper                               
   RAUG   =    1.300    factor for augmentation sphere                          
   RDEP   =    2.724    radius for radial grids                                 
   RDEPT  =    2.174    core radius for aug-charge                              
                                                                                
   Atomic configuration                                                         
   13 entries                                                                   
     n  l   j            E        occ.                                          
     1  0  0.50    -31621.2075   2.0000                                         
     2  0  0.50     -4848.7941   2.0000                                         
     2  1  1.50     -4352.1960   6.0000                                         
     3  0  0.50      -964.9612   2.0000                                         
     3  1  1.50      -803.6179   6.0000                                         
     3  2  2.50      -559.8710  10.0000                                         
     4  0  0.50      -164.3522   2.0000                                         
     4  1  1.50      -114.3756   6.0000                                         
     4  2  2.50       -41.6483  10.0000                                         
     5  0  0.50       -15.1072   2.0000                                         
     5  1  0.50        -5.9526   4.0000                                         
     5  2  1.50        -6.8029   0.0000                                         
     4  3  2.50        -6.8029   0.0000                                         
   Description                                                                  
     l       E           TYP  RCUT    TYP  RCUT                                 
     0    -15.1072389     23  2.300                                             
     0     68.0291300     23  2.300                                             
     1     -5.9526306     23  2.300                                             
     1     95.2407820     23  2.300                                             
     2      1.3605826     23  2.600                                             
     2     68.0291300     23  2.600                                             
     3     -1.3605826     23  2.300                                             
  local pseudopotential read in
  partial core-charges read in
  partial kinetic energy density read in
  kinetic energy density of atom read in
  atomic valenz-charges read in
  non local Contribution for L=           0  read in
    real space projection operators read in
  non local Contribution for L=           0  read in
    real space projection operators read in
  non local Contribution for L=           1  read in
    real space projection operators read in
  non local Contribution for L=           1  read in
    real space projection operators read in
  non local Contribution for L=           2  read in
    real space projection operators read in
  non local Contribution for L=           2  read in
    real space projection operators read in
    PAW grid and wavefunctions read in
 
   number of l-projection  operators is LMAX  =           6
   number of lm-projection operators is LMMAX =          18
 
  PAW_PBE W_sv_GW 23Mar2010             :
 energy of atom  1       EATOM=-1863.8917
 kinetic energy error for atom=    0.2291 (will be added to EATOM!!)
  PAW_PBE Te_GW 22Mar2012               :
 energy of atom  2       EATOM= -223.2721
 kinetic energy error for atom=    0.0024 (will be added to EATOM!!)
 
 
 POSCAR:  W Te                                   
  positions in cartesian coordinates
  No initial velocities read in
 exchange correlation table for  LEXCH =        8
   RHO(1)=    0.500       N(1)  =     2000
   RHO(2)=  100.500       N(2)  =     4000
 


--------------------------------------------------------------------------------------------------------


 ion  position               nearest neighbor table
   1  0.167  0.333  0.429-   3 2.74   4 2.74   3 2.74   4 2.74   3 2.74   4 2.74
   2  0.833  0.667  0.571-   5 2.74   6 2.74   5 2.74   6 2.74   5 2.74   6 2.74
   3  0.833  0.667  0.466-   1 2.74   1 2.74   1 2.74   4 3.62
   4  0.833  0.667  0.393-   1 2.74   1 2.74   1 2.74   3 3.62
   5  0.167  0.333  0.607-   2 2.74   2 2.74   2 2.74   6 3.62
   6  0.167  0.333  0.534-   2 2.74   2 2.74   2 2.74   5 3.62
 
  LATTYP: Found a hexagonal cell.
 ALAT       =     3.5500762221
 C/A-ratio  =    14.0842046402
  
  Lattice vectors:
  
 A1 = (   3.5500762221,   0.0000000000,   0.0000000000)
 A2 = (  -1.7750381110,   3.0744561937,   0.0000000000)
 A3 = (   0.0000000000,   0.0000000000,  50.0000000000)


Analysis of symmetry for initial positions (statically):
=====================================================================
 Subroutine PRICEL returns:
 Original cell was already a primitive cell.
 

 Routine SETGRP: Setting up the symmetry group for a 
 hexagonal supercell.


 Subroutine GETGRP returns: Found 12 space group operations
 (whereof  4 operations were pure point group operations)
 out of a pool of 24 trial point group operations.


The static configuration has the point symmetry C_2h.
 The point group associated with its full space group is D_3d.


Analysis of symmetry for dynamics (positions and initial velocities):
=====================================================================
 Subroutine PRICEL returns:
 Original cell was already a primitive cell.
 

 Routine SETGRP: Setting up the symmetry group for a 
 hexagonal supercell.


 Subroutine GETGRP returns: Found 12 space group operations
 (whereof  4 operations were pure point group operations)
 out of a pool of 24 trial point group operations.


The dynamic configuration has the point symmetry C_2h.
 The point group associated with its full space group is D_3d.


 Subroutine INISYM returns: Found 12 space group operations
 (whereof  4 operations are pure point group operations),
 and found     1 'primitive' translations

 
 
 KPOINTS: KPOINTS created by Atomic Simulation Env

Automatic generation of k-mesh.
Space group operators:
 irot       det(A)        alpha          n_x          n_y          n_z        tau_x        tau_y        tau_z
    1     1.000000     0.000001     1.000000     0.000000     0.000000     0.000000     0.000000     0.000000
    2    -1.000000     0.000001     1.000000     0.000000     0.000000     0.000000     0.000000     0.000000
    3     1.000000   179.999999     1.000000     0.000000     0.000000     0.000000     0.000000     0.000000
    4    -1.000000   179.999999     1.000000     0.000000     0.000000     0.000000     0.000000     0.000000
    5     1.000000   120.000000     0.000000     0.000000    -1.000000     0.500000     0.500000     0.000000
    6    -1.000000   120.000000     0.000000     0.000000    -1.000000     0.500000     0.500000     0.000000
    7     1.000000   120.000000     0.000000     0.000000     1.000000     0.000000     0.500000     0.000000
    8    -1.000000   120.000000     0.000000     0.000000     1.000000     0.000000     0.500000     0.000000
    9     1.000000   180.000000     0.500000    -0.866025     0.000000     0.000000     0.500000     0.000000
   10    -1.000000   180.000000     0.500000    -0.866025     0.000000     0.000000     0.500000     0.000000
   11     1.000000   180.000000    -0.500000    -0.866025     0.000000     0.500000     0.500000     0.000000
   12    -1.000000   180.000000    -0.500000    -0.866025     0.000000     0.500000     0.500000     0.000000
 
 Subroutine IBZKPT returns following result:
 ===========================================
 
 Found     37 irreducible k-points:
 
 Following reciprocal coordinates:
            Coordinates               Weight
  0.000000  0.000000  0.000000      1.000000
  0.055556  0.000000  0.000000      6.000000
  0.111111  0.000000  0.000000      6.000000
  0.166667  0.000000  0.000000      6.000000
  0.222222  0.000000  0.000000      6.000000
  0.277778  0.000000  0.000000      6.000000
  0.333333  0.000000  0.000000      6.000000
  0.388889  0.000000  0.000000      6.000000
  0.444444  0.000000  0.000000      6.000000
  0.500000  0.000000  0.000000      3.000000
  0.055556  0.055556  0.000000      6.000000
  0.111111  0.055556  0.000000     12.000000
  0.166667  0.055556  0.000000     12.000000
  0.222222  0.055556  0.000000     12.000000
  0.277778  0.055556  0.000000     12.000000
  0.333333  0.055556  0.000000     12.000000
  0.388889  0.055556  0.000000     12.000000
  0.444444  0.055556  0.000000     12.000000
  0.111111  0.111111  0.000000      6.000000
  0.166667  0.111111  0.000000     12.000000
  0.222222  0.111111  0.000000     12.000000
  0.277778  0.111111  0.000000     12.000000
  0.333333  0.111111  0.000000     12.000000
  0.388889  0.111111  0.000000     12.000000
  0.444444  0.111111  0.000000      6.000000
  0.166667  0.166667  0.000000      6.000000
  0.222222  0.166667  0.000000     12.000000
  0.277778  0.166667  0.000000     12.000000
  0.333333  0.166667  0.000000     12.000000
  0.388889  0.166667  0.000000     12.000000
  0.222222  0.222222  0.000000      6.000000
  0.277778  0.222222  0.000000     12.000000
  0.333333  0.222222  0.000000     12.000000
  0.388889  0.222222  0.000000      6.000000
  0.277778  0.277778  0.000000      6.000000
  0.333333  0.277778  0.000000     12.000000
  0.333333  0.333333  0.000000      2.000000
 
 Following cartesian coordinates:
            Coordinates               Weight
  0.000000  0.000000  0.000000      1.000000
  0.015649  0.009035  0.000000      6.000000
  0.031298  0.018070  0.000000      6.000000
  0.046947  0.027105  0.000000      6.000000
  0.062596  0.036140  0.000000      6.000000
  0.078246  0.045175  0.000000      6.000000
  0.093895  0.054210  0.000000      6.000000
  0.109544  0.063245  0.000000      6.000000
  0.125193  0.072280  0.000000      6.000000
  0.140842  0.081315  0.000000      3.000000
  0.015649  0.027105  0.000000      6.000000
  0.031298  0.036140  0.000000     12.000000
  0.046947  0.045175  0.000000     12.000000
  0.062596  0.054210  0.000000     12.000000
  0.078246  0.063245  0.000000     12.000000
  0.093895  0.072280  0.000000     12.000000
  0.109544  0.081315  0.000000     12.000000
  0.125193  0.090350  0.000000     12.000000
  0.031298  0.054210  0.000000      6.000000
  0.046947  0.063245  0.000000     12.000000
  0.062596  0.072280  0.000000     12.000000
  0.078246  0.081315  0.000000     12.000000
  0.093895  0.090350  0.000000     12.000000
  0.109544  0.099385  0.000000     12.000000
  0.125193  0.108420  0.000000      6.000000
  0.046947  0.081315  0.000000      6.000000
  0.062596  0.090350  0.000000     12.000000
  0.078246  0.099385  0.000000     12.000000
  0.093895  0.108420  0.000000     12.000000
  0.109544  0.117455  0.000000     12.000000
  0.062596  0.108420  0.000000      6.000000
  0.078246  0.117455  0.000000     12.000000
  0.093895  0.126490  0.000000     12.000000
  0.109544  0.135525  0.000000      6.000000
  0.078246  0.135525  0.000000      6.000000
  0.093895  0.144560  0.000000     12.000000
  0.093895  0.162630  0.000000      2.000000
 
 TETIRR: Found    169 inequivalent tetrahedra from     1944
 
 Subroutine IBZKPT_HF returns following result:
 ==============================================
 
 Found    324 k-points in 1st BZ
 the following    324 k-points will be used (e.g. in the exchange kernel)
 Following reciprocal coordinates:   # in IRBZ
  0.000000  0.000000  0.000000    0.00308642   1 t-inv F
  0.055556  0.000000  0.000000    0.00308642   2 t-inv F
  0.111111  0.000000  0.000000    0.00308642   3 t-inv F
  0.166667  0.000000  0.000000    0.00308642   4 t-inv F
  0.222222  0.000000  0.000000    0.00308642   5 t-inv F
  0.277778  0.000000  0.000000    0.00308642   6 t-inv F
  0.333333  0.000000  0.000000    0.00308642   7 t-inv F
  0.388889  0.000000  0.000000    0.00308642   8 t-inv F
  0.444444  0.000000  0.000000    0.00308642   9 t-inv F
  0.500000  0.000000  0.000000    0.00308642  10 t-inv F
  0.055556  0.055556  0.000000    0.00308642  11 t-inv F
  0.111111  0.055556  0.000000    0.00308642  12 t-inv F
  0.166667  0.055556  0.000000    0.00308642  13 t-inv F
  0.222222  0.055556  0.000000    0.00308642  14 t-inv F
  0.277778  0.055556  0.000000    0.00308642  15 t-inv F
  0.333333  0.055556  0.000000    0.00308642  16 t-inv F
  0.388889  0.055556  0.000000    0.00308642  17 t-inv F
  0.444444  0.055556  0.000000    0.00308642  18 t-inv F
  0.111111  0.111111  0.000000    0.00308642  19 t-inv F
  0.166667  0.111111  0.000000    0.00308642  20 t-inv F
  0.222222  0.111111  0.000000    0.00308642  21 t-inv F
  0.277778  0.111111  0.000000    0.00308642  22 t-inv F
  0.333333  0.111111  0.000000    0.00308642  23 t-inv F
  0.388889  0.111111  0.000000    0.00308642  24 t-inv F
  0.444444  0.111111  0.000000    0.00308642  25 t-inv F
  0.166667  0.166667  0.000000    0.00308642  26 t-inv F
  0.222222  0.166667  0.000000    0.00308642  27 t-inv F
  0.277778  0.166667  0.000000    0.00308642  28 t-inv F
  0.333333  0.166667  0.000000    0.00308642  29 t-inv F
  0.388889  0.166667  0.000000    0.00308642  30 t-inv F
  0.222222  0.222222  0.000000    0.00308642  31 t-inv F
  0.277778  0.222222  0.000000    0.00308642  32 t-inv F
  0.333333  0.222222  0.000000    0.00308642  33 t-inv F
  0.388889  0.222222  0.000000    0.00308642  34 t-inv F
  0.277778  0.277778  0.000000    0.00308642  35 t-inv F
  0.333333  0.277778  0.000000    0.00308642  36 t-inv F
  0.333333  0.333333  0.000000    0.00308642  37 t-inv F
 -0.055556 -0.000000 -0.000000    0.00308642   2 t-inv F
  0.055556 -0.055556 -0.000000    0.00308642   2 t-inv F
 -0.055556  0.055556  0.000000    0.00308642   2 t-inv F
  0.000000 -0.055556  0.000000    0.00308642   2 t-inv F
 -0.000000  0.055556 -0.000000    0.00308642   2 t-inv F
 -0.111111 -0.000000 -0.000000    0.00308642   3 t-inv F
  0.111111 -0.111111 -0.000000    0.00308642   3 t-inv F
 -0.111111  0.111111  0.000000    0.00308642   3 t-inv F
  0.000000 -0.111111  0.000000    0.00308642   3 t-inv F
 -0.000000  0.111111 -0.000000    0.00308642   3 t-inv F
 -0.166667 -0.000000 -0.000000    0.00308642   4 t-inv F
  0.166667 -0.166667 -0.000000    0.00308642   4 t-inv F
 -0.166667  0.166667  0.000000    0.00308642   4 t-inv F
  0.000000 -0.166667  0.000000    0.00308642   4 t-inv F
 -0.000000  0.166667 -0.000000    0.00308642   4 t-inv F
 -0.222222 -0.000000 -0.000000    0.00308642   5 t-inv F
  0.222222 -0.222222 -0.000000    0.00308642   5 t-inv F
 -0.222222  0.222222  0.000000    0.00308642   5 t-inv F
  0.000000 -0.222222  0.000000    0.00308642   5 t-inv F
 -0.000000  0.222222 -0.000000    0.00308642   5 t-inv F
 -0.277778 -0.000000 -0.000000    0.00308642   6 t-inv F
  0.277778 -0.277778 -0.000000    0.00308642   6 t-inv F
 -0.277778  0.277778  0.000000    0.00308642   6 t-inv F
  0.000000 -0.277778  0.000000    0.00308642   6 t-inv F
 -0.000000  0.277778 -0.000000    0.00308642   6 t-inv F
 -0.333333 -0.000000 -0.000000    0.00308642   7 t-inv F
  0.333333 -0.333333 -0.000000    0.00308642   7 t-inv F
 -0.333333  0.333333  0.000000    0.00308642   7 t-inv F
  0.000000 -0.333333  0.000000    0.00308642   7 t-inv F
 -0.000000  0.333333 -0.000000    0.00308642   7 t-inv F
 -0.388889 -0.000000 -0.000000    0.00308642   8 t-inv F
  0.388889 -0.388889 -0.000000    0.00308642   8 t-inv F
 -0.388889  0.388889  0.000000    0.00308642   8 t-inv F
  0.000000 -0.388889  0.000000    0.00308642   8 t-inv F
 -0.000000  0.388889 -0.000000    0.00308642   8 t-inv F
 -0.444444 -0.000000 -0.000000    0.00308642   9 t-inv F
  0.444444 -0.444444 -0.000000    0.00308642   9 t-inv F
 -0.444444  0.444444  0.000000    0.00308642   9 t-inv F
  0.000000 -0.444444  0.000000    0.00308642   9 t-inv F
 -0.000000  0.444444 -0.000000    0.00308642   9 t-inv F
  0.500000 -0.500000 -0.000000    0.00308642  10 t-inv F
  0.000000 -0.500000  0.000000    0.00308642  10 t-inv F
 -0.055556 -0.055556 -0.000000    0.00308642  11 t-inv F
  0.055556 -0.111111 -0.000000    0.00308642  11 t-inv F
 -0.055556  0.111111  0.000000    0.00308642  11 t-inv F
 -0.111111  0.055556  0.000000    0.00308642  11 t-inv F
  0.111111 -0.055556 -0.000000    0.00308642  11 t-inv F
 -0.111111 -0.055556 -0.000000    0.00308642  12 t-inv F
  0.111111 -0.166667 -0.000000    0.00308642  12 t-inv F
 -0.111111  0.166667  0.000000    0.00308642  12 t-inv F
 -0.166667  0.111111  0.000000    0.00308642  12 t-inv F
  0.166667 -0.111111 -0.000000    0.00308642  12 t-inv F
  0.055556 -0.166667  0.000000    0.00308642  12 t-inv F
 -0.055556  0.166667 -0.000000    0.00308642  12 t-inv F
 -0.166667  0.055556 -0.000000    0.00308642  12 t-inv F
  0.166667 -0.055556  0.000000    0.00308642  12 t-inv F
  0.055556  0.111111 -0.000000    0.00308642  12 t-inv F
 -0.055556 -0.111111  0.000000    0.00308642  12 t-inv F
 -0.166667 -0.055556 -0.000000    0.00308642  13 t-inv F
  0.166667 -0.222222 -0.000000    0.00308642  13 t-inv F
 -0.166667  0.222222  0.000000    0.00308642  13 t-inv F
 -0.222222  0.166667  0.000000    0.00308642  13 t-inv F
  0.222222 -0.166667 -0.000000    0.00308642  13 t-inv F
  0.055556 -0.222222  0.000000    0.00308642  13 t-inv F
 -0.055556  0.222222 -0.000000    0.00308642  13 t-inv F
 -0.222222  0.055556 -0.000000    0.00308642  13 t-inv F
  0.222222 -0.055556  0.000000    0.00308642  13 t-inv F
  0.055556  0.166667 -0.000000    0.00308642  13 t-inv F
 -0.055556 -0.166667  0.000000    0.00308642  13 t-inv F
 -0.222222 -0.055556 -0.000000    0.00308642  14 t-inv F
  0.222222 -0.277778 -0.000000    0.00308642  14 t-inv F
 -0.222222  0.277778  0.000000    0.00308642  14 t-inv F
 -0.277778  0.222222  0.000000    0.00308642  14 t-inv F
  0.277778 -0.222222 -0.000000    0.00308642  14 t-inv F
  0.055556 -0.277778  0.000000    0.00308642  14 t-inv F
 -0.055556  0.277778 -0.000000    0.00308642  14 t-inv F
 -0.277778  0.055556 -0.000000    0.00308642  14 t-inv F
  0.277778 -0.055556  0.000000    0.00308642  14 t-inv F
  0.055556  0.222222 -0.000000    0.00308642  14 t-inv F
 -0.055556 -0.222222  0.000000    0.00308642  14 t-inv F
 -0.277778 -0.055556 -0.000000    0.00308642  15 t-inv F
  0.277778 -0.333333 -0.000000    0.00308642  15 t-inv F
 -0.277778  0.333333  0.000000    0.00308642  15 t-inv F
 -0.333333  0.277778  0.000000    0.00308642  15 t-inv F
  0.333333 -0.277778 -0.000000    0.00308642  15 t-inv F
  0.055556 -0.333333  0.000000    0.00308642  15 t-inv F
 -0.055556  0.333333 -0.000000    0.00308642  15 t-inv F
 -0.333333  0.055556 -0.000000    0.00308642  15 t-inv F
  0.333333 -0.055556  0.000000    0.00308642  15 t-inv F
  0.055556  0.277778 -0.000000    0.00308642  15 t-inv F
 -0.055556 -0.277778  0.000000    0.00308642  15 t-inv F
 -0.333333 -0.055556 -0.000000    0.00308642  16 t-inv F
  0.333333 -0.388889 -0.000000    0.00308642  16 t-inv F
 -0.333333  0.388889  0.000000    0.00308642  16 t-inv F
 -0.388889  0.333333  0.000000    0.00308642  16 t-inv F
  0.388889 -0.333333 -0.000000    0.00308642  16 t-inv F
  0.055556 -0.388889  0.000000    0.00308642  16 t-inv F
 -0.055556  0.388889 -0.000000    0.00308642  16 t-inv F
 -0.388889  0.055556 -0.000000    0.00308642  16 t-inv F
  0.388889 -0.055556  0.000000    0.00308642  16 t-inv F
  0.055556  0.333333 -0.000000    0.00308642  16 t-inv F
 -0.055556 -0.333333  0.000000    0.00308642  16 t-inv F
 -0.388889 -0.055556 -0.000000    0.00308642  17 t-inv F
  0.388889 -0.444444 -0.000000    0.00308642  17 t-inv F
 -0.388889  0.444444  0.000000    0.00308642  17 t-inv F
 -0.444444  0.388889  0.000000    0.00308642  17 t-inv F
  0.444444 -0.388889 -0.000000    0.00308642  17 t-inv F
  0.055556 -0.444444  0.000000    0.00308642  17 t-inv F
 -0.055556  0.444444 -0.000000    0.00308642  17 t-inv F
 -0.444444  0.055556 -0.000000    0.00308642  17 t-inv F
  0.444444 -0.055556  0.000000    0.00308642  17 t-inv F
  0.055556  0.388889 -0.000000    0.00308642  17 t-inv F
 -0.055556 -0.388889  0.000000    0.00308642  17 t-inv F
 -0.444444 -0.055556 -0.000000    0.00308642  18 t-inv F
  0.444444 -0.500000 -0.000000    0.00308642  18 t-inv F
 -0.444444  0.500000  0.000000    0.00308642  18 t-inv F
 -0.500000  0.444444  0.000000    0.00308642  18 t-inv F
  0.500000 -0.444444 -0.000000    0.00308642  18 t-inv F
  0.055556 -0.500000  0.000000    0.00308642  18 t-inv F
 -0.055556  0.500000 -0.000000    0.00308642  18 t-inv F
 -0.500000  0.055556 -0.000000    0.00308642  18 t-inv F
  0.500000 -0.055556  0.000000    0.00308642  18 t-inv F
  0.055556  0.444444 -0.000000    0.00308642  18 t-inv F
 -0.055556 -0.444444  0.000000    0.00308642  18 t-inv F
 -0.111111 -0.111111 -0.000000    0.00308642  19 t-inv F
  0.111111 -0.222222 -0.000000    0.00308642  19 t-inv F
 -0.111111  0.222222  0.000000    0.00308642  19 t-inv F
 -0.222222  0.111111  0.000000    0.00308642  19 t-inv F
  0.222222 -0.111111 -0.000000    0.00308642  19 t-inv F
 -0.166667 -0.111111 -0.000000    0.00308642  20 t-inv F
  0.166667 -0.277778 -0.000000    0.00308642  20 t-inv F
 -0.166667  0.277778  0.000000    0.00308642  20 t-inv F
 -0.277778  0.166667  0.000000    0.00308642  20 t-inv F
  0.277778 -0.166667 -0.000000    0.00308642  20 t-inv F
  0.111111 -0.277778  0.000000    0.00308642  20 t-inv F
 -0.111111  0.277778 -0.000000    0.00308642  20 t-inv F
 -0.277778  0.111111 -0.000000    0.00308642  20 t-inv F
  0.277778 -0.111111  0.000000    0.00308642  20 t-inv F
  0.111111  0.166667 -0.000000    0.00308642  20 t-inv F
 -0.111111 -0.166667  0.000000    0.00308642  20 t-inv F
 -0.222222 -0.111111 -0.000000    0.00308642  21 t-inv F
  0.222222 -0.333333 -0.000000    0.00308642  21 t-inv F
 -0.222222  0.333333  0.000000    0.00308642  21 t-inv F
 -0.333333  0.222222  0.000000    0.00308642  21 t-inv F
  0.333333 -0.222222 -0.000000    0.00308642  21 t-inv F
  0.111111 -0.333333  0.000000    0.00308642  21 t-inv F
 -0.111111  0.333333 -0.000000    0.00308642  21 t-inv F
 -0.333333  0.111111 -0.000000    0.00308642  21 t-inv F
  0.333333 -0.111111  0.000000    0.00308642  21 t-inv F
  0.111111  0.222222 -0.000000    0.00308642  21 t-inv F
 -0.111111 -0.222222  0.000000    0.00308642  21 t-inv F
 -0.277778 -0.111111 -0.000000    0.00308642  22 t-inv F
  0.277778 -0.388889 -0.000000    0.00308642  22 t-inv F
 -0.277778  0.388889  0.000000    0.00308642  22 t-inv F
 -0.388889  0.277778  0.000000    0.00308642  22 t-inv F
  0.388889 -0.277778 -0.000000    0.00308642  22 t-inv F
  0.111111 -0.388889  0.000000    0.00308642  22 t-inv F
 -0.111111  0.388889 -0.000000    0.00308642  22 t-inv F
 -0.388889  0.111111 -0.000000    0.00308642  22 t-inv F
  0.388889 -0.111111  0.000000    0.00308642  22 t-inv F
  0.111111  0.277778 -0.000000    0.00308642  22 t-inv F
 -0.111111 -0.277778  0.000000    0.00308642  22 t-inv F
 -0.333333 -0.111111 -0.000000    0.00308642  23 t-inv F
  0.333333 -0.444444 -0.000000    0.00308642  23 t-inv F
 -0.333333  0.444444  0.000000    0.00308642  23 t-inv F
 -0.444444  0.333333  0.000000    0.00308642  23 t-inv F
  0.444444 -0.333333 -0.000000    0.00308642  23 t-inv F
  0.111111 -0.444444  0.000000    0.00308642  23 t-inv F
 -0.111111  0.444444 -0.000000    0.00308642  23 t-inv F
 -0.444444  0.111111 -0.000000    0.00308642  23 t-inv F
  0.444444 -0.111111  0.000000    0.00308642  23 t-inv F
  0.111111  0.333333 -0.000000    0.00308642  23 t-inv F
 -0.111111 -0.333333  0.000000    0.00308642  23 t-inv F
 -0.388889 -0.111111 -0.000000    0.00308642  24 t-inv F
  0.388889 -0.500000 -0.000000    0.00308642  24 t-inv F
 -0.388889  0.500000  0.000000    0.00308642  24 t-inv F
 -0.500000  0.388889  0.000000    0.00308642  24 t-inv F
  0.500000 -0.388889 -0.000000    0.00308642  24 t-inv F
  0.111111 -0.500000  0.000000    0.00308642  24 t-inv F
 -0.111111  0.500000 -0.000000    0.00308642  24 t-inv F
 -0.500000  0.111111 -0.000000    0.00308642  24 t-inv F
  0.500000 -0.111111  0.000000    0.00308642  24 t-inv F
  0.111111  0.388889 -0.000000    0.00308642  24 t-inv F
 -0.111111 -0.388889  0.000000    0.00308642  24 t-inv F
 -0.444444 -0.111111 -0.000000    0.00308642  25 t-inv F
  0.444444 -0.555556 -0.000000    0.00308642  25 t-inv F
 -0.444444  0.555556  0.000000    0.00308642  25 t-inv F
  0.111111 -0.555556  0.000000    0.00308642  25 t-inv F
 -0.111111  0.555556 -0.000000    0.00308642  25 t-inv F
 -0.166667 -0.166667 -0.000000    0.00308642  26 t-inv F
  0.166667 -0.333333 -0.000000    0.00308642  26 t-inv F
 -0.166667  0.333333  0.000000    0.00308642  26 t-inv F
 -0.333333  0.166667  0.000000    0.00308642  26 t-inv F
  0.333333 -0.166667 -0.000000    0.00308642  26 t-inv F
 -0.222222 -0.166667 -0.000000    0.00308642  27 t-inv F
  0.222222 -0.388889 -0.000000    0.00308642  27 t-inv F
 -0.222222  0.388889  0.000000    0.00308642  27 t-inv F
 -0.388889  0.222222  0.000000    0.00308642  27 t-inv F
  0.388889 -0.222222 -0.000000    0.00308642  27 t-inv F
  0.166667 -0.388889  0.000000    0.00308642  27 t-inv F
 -0.166667  0.388889 -0.000000    0.00308642  27 t-inv F
 -0.388889  0.166667 -0.000000    0.00308642  27 t-inv F
  0.388889 -0.166667  0.000000    0.00308642  27 t-inv F
  0.166667  0.222222 -0.000000    0.00308642  27 t-inv F
 -0.166667 -0.222222  0.000000    0.00308642  27 t-inv F
 -0.277778 -0.166667 -0.000000    0.00308642  28 t-inv F
  0.277778 -0.444444 -0.000000    0.00308642  28 t-inv F
 -0.277778  0.444444  0.000000    0.00308642  28 t-inv F
 -0.444444  0.277778  0.000000    0.00308642  28 t-inv F
  0.444444 -0.277778 -0.000000    0.00308642  28 t-inv F
  0.166667 -0.444444  0.000000    0.00308642  28 t-inv F
 -0.166667  0.444444 -0.000000    0.00308642  28 t-inv F
 -0.444444  0.166667 -0.000000    0.00308642  28 t-inv F
  0.444444 -0.166667  0.000000    0.00308642  28 t-inv F
  0.166667  0.277778 -0.000000    0.00308642  28 t-inv F
 -0.166667 -0.277778  0.000000    0.00308642  28 t-inv F
 -0.333333 -0.166667 -0.000000    0.00308642  29 t-inv F
  0.333333 -0.500000 -0.000000    0.00308642  29 t-inv F
 -0.333333  0.500000  0.000000    0.00308642  29 t-inv F
 -0.500000  0.333333  0.000000    0.00308642  29 t-inv F
  0.500000 -0.333333 -0.000000    0.00308642  29 t-inv F
  0.166667 -0.500000  0.000000    0.00308642  29 t-inv F
 -0.166667  0.500000 -0.000000    0.00308642  29 t-inv F
 -0.500000  0.166667 -0.000000    0.00308642  29 t-inv F
  0.500000 -0.166667  0.000000    0.00308642  29 t-inv F
  0.166667  0.333333 -0.000000    0.00308642  29 t-inv F
 -0.166667 -0.333333  0.000000    0.00308642  29 t-inv F
 -0.388889 -0.166667 -0.000000    0.00308642  30 t-inv F
  0.388889 -0.555556 -0.000000    0.00308642  30 t-inv F
 -0.388889  0.555556  0.000000    0.00308642  30 t-inv F
 -0.555556  0.388889  0.000000    0.00308642  30 t-inv F
  0.555556 -0.388889 -0.000000    0.00308642  30 t-inv F
  0.166667 -0.555556  0.000000    0.00308642  30 t-inv F
 -0.166667  0.555556 -0.000000    0.00308642  30 t-inv F
 -0.555556  0.166667 -0.000000    0.00308642  30 t-inv F
  0.555556 -0.166667  0.000000    0.00308642  30 t-inv F
  0.166667  0.388889 -0.000000    0.00308642  30 t-inv F
 -0.166667 -0.388889  0.000000    0.00308642  30 t-inv F
 -0.222222 -0.222222 -0.000000    0.00308642  31 t-inv F
  0.222222 -0.444444 -0.000000    0.00308642  31 t-inv F
 -0.222222  0.444444  0.000000    0.00308642  31 t-inv F
 -0.444444  0.222222  0.000000    0.00308642  31 t-inv F
  0.444444 -0.222222 -0.000000    0.00308642  31 t-inv F
 -0.277778 -0.222222 -0.000000    0.00308642  32 t-inv F
  0.277778 -0.500000 -0.000000    0.00308642  32 t-inv F
 -0.277778  0.500000  0.000000    0.00308642  32 t-inv F
 -0.500000  0.277778  0.000000    0.00308642  32 t-inv F
  0.500000 -0.277778 -0.000000    0.00308642  32 t-inv F
  0.222222 -0.500000  0.000000    0.00308642  32 t-inv F
 -0.222222  0.500000 -0.000000    0.00308642  32 t-inv F
 -0.500000  0.222222 -0.000000    0.00308642  32 t-inv F
  0.500000 -0.222222  0.000000    0.00308642  32 t-inv F
  0.222222  0.277778 -0.000000    0.00308642  32 t-inv F
 -0.222222 -0.277778  0.000000    0.00308642  32 t-inv F
 -0.333333 -0.222222 -0.000000    0.00308642  33 t-inv F
  0.333333 -0.555556 -0.000000    0.00308642  33 t-inv F
 -0.333333  0.555556  0.000000    0.00308642  33 t-inv F
 -0.555556  0.333333  0.000000    0.00308642  33 t-inv F
  0.555556 -0.333333 -0.000000    0.00308642  33 t-inv F
  0.222222 -0.555556  0.000000    0.00308642  33 t-inv F
 -0.222222  0.555556 -0.000000    0.00308642  33 t-inv F
 -0.555556  0.222222 -0.000000    0.00308642  33 t-inv F
  0.555556 -0.222222  0.000000    0.00308642  33 t-inv F
  0.222222  0.333333 -0.000000    0.00308642  33 t-inv F
 -0.222222 -0.333333  0.000000    0.00308642  33 t-inv F
 -0.388889 -0.222222 -0.000000    0.00308642  34 t-inv F
  0.388889 -0.611111 -0.000000    0.00308642  34 t-inv F
 -0.388889  0.611111  0.000000    0.00308642  34 t-inv F
  0.222222 -0.611111  0.000000    0.00308642  34 t-inv F
 -0.222222  0.611111 -0.000000    0.00308642  34 t-inv F
 -0.277778 -0.277778 -0.000000    0.00308642  35 t-inv F
  0.277778 -0.555556 -0.000000    0.00308642  35 t-inv F
 -0.277778  0.555556  0.000000    0.00308642  35 t-inv F
 -0.555556  0.277778  0.000000    0.00308642  35 t-inv F
  0.555556 -0.277778 -0.000000    0.00308642  35 t-inv F
 -0.333333 -0.277778 -0.000000    0.00308642  36 t-inv F
  0.333333 -0.611111 -0.000000    0.00308642  36 t-inv F
 -0.333333  0.611111  0.000000    0.00308642  36 t-inv F
 -0.611111  0.333333  0.000000    0.00308642  36 t-inv F
  0.611111 -0.333333 -0.000000    0.00308642  36 t-inv F
  0.277778 -0.611111  0.000000    0.00308642  36 t-inv F
 -0.277778  0.611111 -0.000000    0.00308642  36 t-inv F
 -0.611111  0.277778 -0.000000    0.00308642  36 t-inv F
  0.611111 -0.277778  0.000000    0.00308642  36 t-inv F
  0.277778  0.333333 -0.000000    0.00308642  36 t-inv F
 -0.277778 -0.333333  0.000000    0.00308642  36 t-inv F
 -0.333333 -0.333333 -0.000000    0.00308642  37 t-inv F


--------------------------------------------------------------------------------------------------------




 Dimension of arrays:
   k-points           NKPTS =     37   k-points in BZ     NKDIM =     37   number of bands    NBANDS=     56
   number of dos      NEDOS =    301   number of ions     NIONS =      6
   non local maximal  LDIM  =      8   non local SUM 2l+1 LMDIM =     26
   total plane-waves  NPLWV = 169344
   max r-space proj   IRMAX =      1   max aug-charges    IRDMAX=  18246
   dimension x,y,z NGX =    24 NGY =   24 NGZ =  294
   dimension x,y,z NGXF=    48 NGYF=   48 NGZF=  588
   support grid    NGXF=    48 NGYF=   48 NGZF=  588
   ions per type =               2   4
 NGX,Y,Z   is equivalent  to a cutoff of  11.24, 11.24,  9.78 a.u.
 NGXF,Y,Z  is equivalent  to a cutoff of  22.48, 22.48, 19.55 a.u.


 I would recommend the setting:
   dimension x,y,z NGX =    21 NGY =   21 NGZ =  290
 SYSTEM =  unknown system                          
 POSCAR =   W Te                                   

 Startparameter for this run:
   NWRITE =      2    write-flag & timer
   PREC   = accura    normal or accurate (medium, high low for compatibility)
   ISTART =      0    job   : 0-new  1-cont  2-samecut
   ICHARG =      2    charge: 1-file 2-atom 10-const
   ISPIN  =      1    spin polarized calculation?
   LNONCOLLINEAR =      F non collinear calculations
   LSORBIT =      F    spin-orbit coupling
   INIWAV =      1    electr: 0-lowe 1-rand  2-diag
   LASPH  =      F    aspherical Exc in radial PAW
   METAGGA=      F    non-selfconsistent MetaGGA calc.

 Electronic Relaxation 1
   ENCUT  =  317.1 eV  23.31 Ry    4.83 a.u.   5.15  5.15 72.60*2*pi/ulx,y,z
   ENINI  =  317.1     initial cutoff
   ENAUG  =  807.8 eV  augmentation charge cutoff
   NELM   =     60;   NELMIN=  5; NELMDL= -5     # of ELM steps 
   EDIFF  = 0.1E-07   stopping-criterion for ELM
   LREAL  =      F    real-space projection
   NLSPLINE    = F    spline interpolate recip. space projectors
   LCOMPAT=      F    compatible to vasp.4.4
   GGA_COMPAT  = T    GGA compatible to vasp.4.4-vasp.4.6
   LMAXPAW     = -100 max onsite density
   LMAXMIX     =    2 max onsite mixed and CHGCAR
   VOSKOWN=      0    Vosko Wilk Nusair interpolation
   ROPT   =    0.00000   0.00000
 Ionic relaxation
   EDIFFG = 0.1E-06   stopping-criterion for IOM
   NSW    =      0    number of steps for IOM
   NBLOCK =      1;   KBLOCK =      1    inner block; outer block 
   IBRION =     -1    ionic relax: 0-MD 1-quasi-New 2-CG
   NFREE  =      0    steps in history (QN), initial steepest desc. (CG)
   ISIF   =      2    stress and relaxation
   IWAVPR =     10    prediction:  0-non 1-charg 2-wave 3-comb
   ISYM   =      2    0-nonsym 1-usesym 2-fastsym
   LCORR  =      T    Harris-Foulkes like correction to forces

   POTIM  = 0.5000    time-step for ionic-motion
   TEIN   =    0.0    initial temperature
   TEBEG  =    0.0;   TEEND  =   0.0 temperature during run
   SMASS  =  -3.00    Nose mass-parameter (am)
   estimated Nose-frequenzy (Omega)   =  0.10E-29 period in steps =****** mass=  -0.288E-27a.u.
   SCALEE = 1.0000    scale energy and forces
   NPACO  =    256;   APACO  = 16.0  distance and # of slots for P.C.
   PSTRESS=    0.0 pullay stress

  Mass of Ions in am
   POMASS = 183.85127.60
  Ionic Valenz
   ZVAL   =  14.00  6.00
  Atomic Wigner-Seitz radii
   RWIGS  =  -1.00 -1.00
  virtual crystal weights 
   VCA    =   1.00  1.00
   NELECT =      52.0000    total number of electrons
   NUPDOWN=      -1.0000    fix difference up-down

 DOS related values:
   EMIN   =  10.00;   EMAX   =-10.00  energy-range for DOS
   EFERMI =   0.00
   ISMEAR =    -5;   SIGMA  =   0.01  broadening in eV -4-tet -1-fermi 0-gaus

 Electronic relaxation 2 (details)
   IALGO  =     38    algorithm
   LDIAG  =      T    sub-space diagonalisation (order eigenvalues)
   LSUBROT=      F    optimize rotation matrix (better conditioning)
   TURBO    =      0    0=normal 1=particle mesh
   IRESTART =      0    0=no restart 2=restart with 2 vectors
   NREBOOT  =      0    no. of reboots
   NMIN     =      0    reboot dimension
   EREF     =   0.00    reference energy to select bands
   IMIX   =      4    mixing-type and parameters
     AMIX     =   0.40;   BMIX     =  1.00
     AMIX_MAG =   1.60;   BMIX_MAG =  1.00
     AMIN     =   0.10
     WC   =   100.;   INIMIX=   1;  MIXPRE=   1;  MAXMIX= -45

 Intra band minimization:
   WEIMIN = 0.0000     energy-eigenvalue tresh-hold
   EBREAK =  0.45E-10  absolut break condition
   DEPER  =   0.30     relativ break condition  

   TIME   =   0.40     timestep for ELM

  volume/ion in A,a.u.               =      90.95       613.79
  Fermi-wavevector in a.u.,A,eV,Ry     =   0.747740  1.413024  7.607223  0.559115
  Thomas-Fermi vector in A             =   1.843865
 
 Write flags
   LWAVE  =      T    write WAVECAR
   LCHARG =      T    write CHGCAR
   LVTOT  =      F    write LOCPOT, total local potential
   LVHAR  =      F    write LOCPOT, Hartree potential only
   LELF   =      F    write electronic localiz. function (ELF)
   LORBIT =      0    0 simple, 1 ext, 2 COOP (PROOUT)


 Dipole corrections
   LMONO  =      F    monopole corrections only (constant potential shift)
   LDIPOL =      F    correct potential (dipole corrections)
   IDIPOL =      0    1-x, 2-y, 3-z, 4-all directions 
   EPSILON=  1.0000000 bulk dielectric constant

 Exchange correlation treatment:
   GGA     =    PE    GGA type
   LEXCH   =     8    internal setting for exchange type
   VOSKOWN=      0    Vosko Wilk Nusair interpolation
   LHFCALC =     F    Hartree Fock is set to
   LHFONE  =     F    Hartree Fock one center treatment
   AEXX    =    0.0000 exact exchange contribution

 Linear response parameters
   LEPSILON=     T    determine dielectric tensor
   LRPA    =     F    only Hartree local field effects (RPA)
   LNABLA  =     F    use nabla operator in PAW spheres
   LVEL    =     F    velocity operator in full k-point grid
   LINTERFAST=   F  fast interpolation
   KINTER  =     0    interpolate to denser k-point grid
   CSHIFT  =0.1000    complex shift for real part using Kramers Kronig
   OMEGAMAX=  -1.0    maximum frequency
   DEG_THRESHOLD= 0.2000000E-02 threshold for treating states as degnerate
   RTIME   =    0.100 relaxation time in fs

 Orbital magnetization related:
   ORBITALMAG=     F  switch on orbital magnetization
   LCHIMAG   =     F  perturbation theory with respect to B field
   DQ        =  0.001000  dq finite difference perturbation B field



--------------------------------------------------------------------------------------------------------


 Static calculation
 charge density and potential will be updated during run
 non-spin polarized calculation
 Variant of blocked Davidson
 Davidson routine will perform the subspace rotation
 perform sub-space diagonalisation
    after iterative eigenvector-optimisation
 modified Broyden-mixing scheme, WC =      100.0
 initial mixing is a Kerker type mixing with AMIX =  0.4000 and BMIX =      1.0000
 Hartree-type preconditioning will be used
 using additional bands           30
 reciprocal scheme for non local part
 use partial core corrections
 calculate Harris-corrections to forces 
   (improved forces if not selfconsistent)
 use gradient corrections 
 use of overlap-Matrix (Vanderbilt PP)
 Fermi weights with tetrahedron method with Bloechl corrections


--------------------------------------------------------------------------------------------------------


  energy-cutoff  :      317.13
  volume of cell :      545.73
      direct lattice vectors                 reciprocal lattice vectors
     3.550076222  0.000000000  0.000000000     0.281684093  0.162630387  0.000000000
    -1.775038111  3.074456194  0.000000000     0.000000000  0.325260774  0.000000000
     0.000000000  0.000000000 50.000000000     0.000000000  0.000000000  0.020000000

  length of vectors
     3.550076222  3.550076222 50.000000000     0.325260774  0.325260774  0.020000000


 
 k-points in units of 2pi/SCALE and weight: KPOINTS created by Atomic Simulation Env
   0.00000000  0.00000000  0.00000000       0.003
   0.01564912  0.00903502  0.00000000       0.019
   0.03129823  0.01807004  0.00000000       0.019
   0.04694735  0.02710506  0.00000000       0.019
   0.06259647  0.03614009  0.00000000       0.019
   0.07824558  0.04517511  0.00000000       0.019
   0.09389470  0.05421013  0.00000000       0.019
   0.10954381  0.06324515  0.00000000       0.019
   0.12519293  0.07228017  0.00000000       0.019
   0.14084205  0.08131519  0.00000000       0.009
   0.01564912  0.02710506  0.00000000       0.019
   0.03129823  0.03614009  0.00000000       0.037
   0.04694735  0.04517511  0.00000000       0.037
   0.06259647  0.05421013  0.00000000       0.037
   0.07824558  0.06324515  0.00000000       0.037
   0.09389470  0.07228017  0.00000000       0.037
   0.10954381  0.08131519  0.00000000       0.037
   0.12519293  0.09035021  0.00000000       0.037
   0.03129823  0.05421013  0.00000000       0.019
   0.04694735  0.06324515  0.00000000       0.037
   0.06259647  0.07228017  0.00000000       0.037
   0.07824558  0.08131519  0.00000000       0.037
   0.09389470  0.09035021  0.00000000       0.037
   0.10954381  0.09938524  0.00000000       0.037
   0.12519293  0.10842026  0.00000000       0.019
   0.04694735  0.08131519  0.00000000       0.019
   0.06259647  0.09035021  0.00000000       0.037
   0.07824558  0.09938524  0.00000000       0.037
   0.09389470  0.10842026  0.00000000       0.037
   0.10954381  0.11745528  0.00000000       0.037
   0.06259647  0.10842026  0.00000000       0.019
   0.07824558  0.11745528  0.00000000       0.037
   0.09389470  0.12649030  0.00000000       0.037
   0.10954381  0.13552532  0.00000000       0.019
   0.07824558  0.13552532  0.00000000       0.019
   0.09389470  0.14456034  0.00000000       0.037
   0.09389470  0.16263039  0.00000000       0.006
 
 k-points in reciprocal lattice and weights: KPOINTS created by Atomic Simulation Env
   0.00000000  0.00000000  0.00000000       0.003
   0.05555556  0.00000000  0.00000000       0.019
   0.11111111  0.00000000  0.00000000       0.019
   0.16666667  0.00000000  0.00000000       0.019
   0.22222222  0.00000000  0.00000000       0.019
   0.27777778  0.00000000  0.00000000       0.019
   0.33333333  0.00000000  0.00000000       0.019
   0.38888889  0.00000000  0.00000000       0.019
   0.44444444  0.00000000  0.00000000       0.019
   0.50000000  0.00000000  0.00000000       0.009
   0.05555556  0.05555556  0.00000000       0.019
   0.11111111  0.05555556  0.00000000       0.037
   0.16666667  0.05555556  0.00000000       0.037
   0.22222222  0.05555556  0.00000000       0.037
   0.27777778  0.05555556  0.00000000       0.037
   0.33333333  0.05555556  0.00000000       0.037
   0.38888889  0.05555556  0.00000000       0.037
   0.44444444  0.05555556  0.00000000       0.037
   0.11111111  0.11111111  0.00000000       0.019
   0.16666667  0.11111111  0.00000000       0.037
   0.22222222  0.11111111  0.00000000       0.037
   0.27777778  0.11111111  0.00000000       0.037
   0.33333333  0.11111111  0.00000000       0.037
   0.38888889  0.11111111  0.00000000       0.037
   0.44444444  0.11111111  0.00000000       0.019
   0.16666667  0.16666667  0.00000000       0.019
   0.22222222  0.16666667  0.00000000       0.037
   0.27777778  0.16666667  0.00000000       0.037
   0.33333333  0.16666667  0.00000000       0.037
   0.38888889  0.16666667  0.00000000       0.037
   0.22222222  0.22222222  0.00000000       0.019
   0.27777778  0.22222222  0.00000000       0.037
   0.33333333  0.22222222  0.00000000       0.037
   0.38888889  0.22222222  0.00000000       0.019
   0.27777778  0.27777778  0.00000000       0.019
   0.33333333  0.27777778  0.00000000       0.037
   0.33333333  0.33333333  0.00000000       0.006
 
 position of ions in fractional coordinates (direct lattice) 
   0.16666667  0.33333333  0.42940000
   0.83333333  0.66666667  0.57060000
   0.83333333  0.66666667  0.46563924
   0.83333333  0.66666667  0.39316076
   0.16666667  0.33333333  0.60683924
   0.16666667  0.33333333  0.53436076
 
 position of ions in cartesian coordinates  (Angst):
  -0.00000000  1.02481873 21.47000000
   1.77503811  2.04963746 28.53000000
   1.77503811  2.04963746 23.28196221
   1.77503811  2.04963746 19.65803779
  -0.00000000  1.02481873 30.34196221
  -0.00000000  1.02481873 26.71803779
 


--------------------------------------------------------------------------------------------------------


 k-point  1 :   0.0000 0.0000 0.0000  plane waves:    6937
 k-point  2 :   0.0556 0.0000 0.0000  plane waves:    6949
 k-point  3 :   0.1111 0.0000 0.0000  plane waves:    6915
 k-point  4 :   0.1667 0.0000 0.0000  plane waves:    6927
 k-point  5 :   0.2222 0.0000 0.0000  plane waves:    6983
 k-point  6 :   0.2778 0.0000 0.0000  plane waves:    7013
 k-point  7 :   0.3333 0.0000 0.0000  plane waves:    7017
 k-point  8 :   0.3889 0.0000 0.0000  plane waves:    7031
 k-point  9 :   0.4444 0.0000 0.0000  plane waves:    7031
 k-point 10 :   0.5000 0.0000 0.0000  plane waves:    7042
 k-point 11 :   0.0556 0.0556 0.0000  plane waves:    6931
 k-point 12 :   0.1111 0.0556 0.0000  plane waves:    6925
 k-point 13 :   0.1667 0.0556 0.0000  plane waves:    6950
 k-point 14 :   0.2222 0.0556 0.0000  plane waves:    7000
 k-point 15 :   0.2778 0.0556 0.0000  plane waves:    7018
 k-point 16 :   0.3333 0.0556 0.0000  plane waves:    7028
 k-point 17 :   0.3889 0.0556 0.0000  plane waves:    7035
 k-point 18 :   0.4444 0.0556 0.0000  plane waves:    7024
 k-point 19 :   0.1111 0.1111 0.0000  plane waves:    6963
 k-point 20 :   0.1667 0.1111 0.0000  plane waves:    6972
 k-point 21 :   0.2222 0.1111 0.0000  plane waves:    6994
 k-point 22 :   0.2778 0.1111 0.0000  plane waves:    7025
 k-point 23 :   0.3333 0.1111 0.0000  plane waves:    7033
 k-point 24 :   0.3889 0.1111 0.0000  plane waves:    7033
 k-point 25 :   0.4444 0.1111 0.0000  plane waves:    7024
 k-point 26 :   0.1667 0.1667 0.0000  plane waves:    6971
 k-point 27 :   0.2222 0.1667 0.0000  plane waves:    7005
 k-point 28 :   0.2778 0.1667 0.0000  plane waves:    7005
 k-point 29 :   0.3333 0.1667 0.0000  plane waves:    7024
 k-point 30 :   0.3889 0.1667 0.0000  plane waves:    7005
 k-point 31 :   0.2222 0.2222 0.0000  plane waves:    7015
 k-point 32 :   0.2778 0.2222 0.0000  plane waves:    7013
 k-point 33 :   0.3333 0.2222 0.0000  plane waves:    7014
 k-point 34 :   0.3889 0.2222 0.0000  plane waves:    6993
 k-point 35 :   0.2778 0.2778 0.0000  plane waves:    7009
 k-point 36 :   0.3333 0.2778 0.0000  plane waves:    6982
 k-point 37 :   0.3333 0.3333 0.0000  plane waves:    6969

 maximum and minimum number of plane-waves per node :      7042     6915

 maximum number of plane-waves:      7042
 maximum index in each direction: 
   IXMAX=    5   IYMAX=    5   IZMAX=   72
   IXMIN=   -5   IYMIN=   -5   IZMIN=  -72

 NGX is ok and might be reduce to  22
 NGY is ok and might be reduce to  22
 NGZ is ok and might be reduce to 290

 serial   3D FFT for wavefunctions
 parallel 3D FFT for charge:
    minimum data exchange during FFTs selected (reduces bandwidth)


 total amount of memory used by VASP on root node   160465. kBytes
========================================================================

   base      :      30000. kBytes
   nonl-proj :     109283. kBytes
   fftplans  :       2517. kBytes
   grid      :       9951. kBytes
   one-center:        194. kBytes
   wavefun   :       8520. kBytes
 
     INWAV:  cpu time    0.0000: real time    0.0000
 Broyden mixing: mesh for mixing (old mesh)
   NGX = 11   NGY = 11   NGZ =145
  (NGX  = 48   NGY  = 48   NGZ  =588)
  gives a total of  17545 points

 initial charge density was supplied:
 charge density of overlapping atoms calculated
 number of electron      52.0000000 magnetization 
 keeping initial charge density in first step


--------------------------------------------------------------------------------------------------------


 Maximum index for augmentation-charges          990 (set IRDMAX)


--------------------------------------------------------------------------------------------------------


 First call to EWALD:  gamma=   0.217
 Maximum number of real-space cells 6x 6x 1
 Maximum number of reciprocal cells 1x 1x14

 FEWALD executed in parallel
    FEWALD:  cpu time    0.0020: real time    0.0012


----------------------------------------- Iteration    1(   1)  ---------------------------------------


    POTLOK:  cpu time    0.0420: real time    0.0420
    SETDIJ:  cpu time    0.0060: real time    0.0068
     EDDAV:  cpu time    5.7371: real time    5.7426
 BZINTS: Fermi energy:  4.491193; 52.000000 electrons
         Band energy:-703.090131;  BLOECHL correction: -0.078166
       DOS:  cpu time    0.0160: real time    0.0161
    --------------------------------------------
      LOOP:  cpu time    5.8021: real time    5.8095

 eigenvalue-minimisations  :  6132
 total energy-change (2. order) : 0.2138079E+03  (-0.2042713E+04)
 number of electron      52.0000000 magnetization 
 augmentation part       52.0000000 magnetization 

 Free energy of the ion-electron system (eV)
  ---------------------------------------------------
  alpha Z        PSCENC =        30.19755253
  Ewald energy   TEWEN  =     48214.97414447
  -Hartree energ DENC   =    -52154.83559015
  -exchange      EXHF   =         0.00000000
  -V(xc)+E(xc)   XCENC  =      -148.85916331
  PAW double counting   =      3947.08937422    -3592.07248720
  entropy T*S    EENTRO =         0.00000000
  eigenvalues    EBANDS =      -703.09013139
  atomic energy  EATOM  =      4620.40415896
  Solvation  Ediel_sol  =         0.00000000
  ---------------------------------------------------
  free energy    TOTEN  =       213.80785813 eV

  energy without entropy =      213.80785813  energy(sigma->0) =      213.80785813


--------------------------------------------------------------------------------------------------------




----------------------------------------- Iteration    1(   2)  ---------------------------------------


     EDDAV:  cpu time    6.5550: real time    6.5695
 BZINTS: Fermi energy: -0.087113; 52.000000 electrons
         Band energy:-954.561533;  BLOECHL correction:  0.000000
       DOS:  cpu time    0.0030: real time    0.0029
    --------------------------------------------
      LOOP:  cpu time    6.5610: real time    6.5812

 eigenvalue-minimisations  :  7168
 total energy-change (2. order) :-0.2514714E+03  (-0.2429648E+03)
 number of electron      52.0000000 magnetization 
 augmentation part       52.0000000 magnetization 

 Free energy of the ion-electron system (eV)
  ---------------------------------------------------
  alpha Z        PSCENC =        30.19755253
  Ewald energy   TEWEN  =     48214.97414447
  -Hartree energ DENC   =    -52154.83559015
  -exchange      EXHF   =         0.00000000
  -V(xc)+E(xc)   XCENC  =      -148.85916331
  PAW double counting   =      3947.08937422    -3592.07248720
  entropy T*S    EENTRO =         0.00000000
  eigenvalues    EBANDS =      -954.56153278
  atomic energy  EATOM  =      4620.40415896
  Solvation  Ediel_sol  =         0.00000000
  ---------------------------------------------------
  free energy    TOTEN  =       -37.66354325 eV

  energy without entropy =      -37.66354325  energy(sigma->0) =      -37.66354325


--------------------------------------------------------------------------------------------------------




----------------------------------------- Iteration    1(   3)  ---------------------------------------


     EDDAV:  cpu time    4.7383: real time    4.7430
 BZINTS: Fermi energy: -0.688697; 52.000000 electrons
         Band energy:-963.295115;  BLOECHL correction:  0.000000
       DOS:  cpu time    0.0030: real time    0.0033
    --------------------------------------------
      LOOP:  cpu time    4.7423: real time    4.7490

 eigenvalue-minimisations  :  4984
 total energy-change (2. order) :-0.8733582E+01  (-0.8570749E+01)
 number of electron      52.0000000 magnetization 
 augmentation part       52.0000000 magnetization 

 Free energy of the ion-electron system (eV)
  ---------------------------------------------------
  alpha Z        PSCENC =        30.19755253
  Ewald energy   TEWEN  =     48214.97414447
  -Hartree energ DENC   =    -52154.83559015
  -exchange      EXHF   =         0.00000000
  -V(xc)+E(xc)   XCENC  =      -148.85916331
  PAW double counting   =      3947.08937422    -3592.07248720
  entropy T*S    EENTRO =         0.00000000
  eigenvalues    EBANDS =      -963.29511487
  atomic energy  EATOM  =      4620.40415896
  Solvation  Ediel_sol  =         0.00000000
  ---------------------------------------------------
  free energy    TOTEN  =       -46.39712534 eV

  energy without entropy =      -46.39712534  energy(sigma->0) =      -46.39712534


--------------------------------------------------------------------------------------------------------




----------------------------------------- Iteration    1(   4)  ---------------------------------------


     EDDAV:  cpu time    5.9091: real time    5.9164
 BZINTS: Fermi energy: -0.739622; 52.000000 electrons
         Band energy:-963.516178;  BLOECHL correction:  0.000000
       DOS:  cpu time    0.0030: real time    0.0032
    --------------------------------------------
      LOOP:  cpu time    5.9131: real time    5.9221

 eigenvalue-minimisations  :  6412
 total energy-change (2. order) :-0.2210628E+00  (-0.2207594E+00)
 number of electron      52.0000000 magnetization 
 augmentation part       52.0000000 magnetization 

 Free energy of the ion-electron system (eV)
  ---------------------------------------------------
  alpha Z        PSCENC =        30.19755253
  Ewald energy   TEWEN  =     48214.97414447
  -Hartree energ DENC   =    -52154.83559015
  -exchange      EXHF   =         0.00000000
  -V(xc)+E(xc)   XCENC  =      -148.85916331
  PAW double counting   =      3947.08937422    -3592.07248720
  entropy T*S    EENTRO =         0.00000000
  eigenvalues    EBANDS =      -963.51617770
  atomic energy  EATOM  =      4620.40415896
  Solvation  Ediel_sol  =         0.00000000
  ---------------------------------------------------
  free energy    TOTEN  =       -46.61818817 eV

  energy without entropy =      -46.61818817  energy(sigma->0) =      -46.61818817


--------------------------------------------------------------------------------------------------------




----------------------------------------- Iteration    1(   5)  ---------------------------------------


     EDDAV:  cpu time    5.1072: real time    5.1127
 BZINTS: Fermi energy: -0.749266; 52.000000 electrons
         Band energy:-963.521497;  BLOECHL correction:  0.000000
       DOS:  cpu time    0.0040: real time    0.0032
    CHARGE:  cpu time    0.1830: real time    0.1839
    MIXING:  cpu time    0.0010: real time    0.0016
    --------------------------------------------
      LOOP:  cpu time    5.2972: real time    5.3038

 eigenvalue-minimisations  :  5404
 total energy-change (2. order) :-0.5319338E-02  (-0.5318268E-02)
 number of electron      51.9999994 magnetization 
 augmentation part       -9.0511734 magnetization 

 Broyden mixing:
  rms(total) = 0.11040E+02    rms(broyden)= 0.11040E+02
  rms(prec ) = 0.11042E+02
  weight for this iteration     100.00

 Free energy of the ion-electron system (eV)
  ---------------------------------------------------
  alpha Z        PSCENC =        30.19755253
  Ewald energy   TEWEN  =     48214.97414447
  -Hartree energ DENC   =    -52154.83559015
  -exchange      EXHF   =         0.00000000
  -V(xc)+E(xc)   XCENC  =      -148.85916331
  PAW double counting   =      3947.08937422    -3592.07248720
  entropy T*S    EENTRO =         0.00000000
  eigenvalues    EBANDS =      -963.52149704
  atomic energy  EATOM  =      4620.40415896
  Solvation  Ediel_sol  =         0.00000000
  ---------------------------------------------------
  free energy    TOTEN  =       -46.62350751 eV

  energy without entropy =      -46.62350751  energy(sigma->0) =      -46.62350751


--------------------------------------------------------------------------------------------------------




----------------------------------------- Iteration    1(   6)  ---------------------------------------


    POTLOK:  cpu time    0.0370: real time    0.0370
    SETDIJ:  cpu time    0.0070: real time    0.0070
     EDDAV:  cpu time    4.3613: real time    4.3696
 BZINTS: Fermi energy: -1.977969; 52.000000 electrons
         Band energy:***********;  BLOECHL correction:  0.000000
       DOS:  cpu time    0.0030: real time    0.0034
    CHARGE:  cpu time    0.1840: real time    0.1837
    MIXING:  cpu time    0.0010: real time    0.0016
    --------------------------------------------
      LOOP:  cpu time    4.5943: real time    4.6061

 eigenvalue-minimisations  :  4480
 total energy-change (2. order) : 0.2769574E+01  (-0.1221681E+01)
 number of electron      51.9999994 magnetization 
 augmentation part       -8.4499100 magnetization 

 Broyden mixing:
  rms(total) = 0.97738E+01    rms(broyden)= 0.97738E+01
  rms(prec ) = 0.97750E+01
  weight for this iteration     100.00

 eigenvalues of (default mixing * dielectric matrix)
  average eigenvalue GAMMA=   4.4698
  4.4698

 Free energy of the ion-electron system (eV)
  ---------------------------------------------------
  alpha Z        PSCENC =        30.19755253
  Ewald energy   TEWEN  =     48214.97414447
  -Hartree energ DENC   =    -52077.57003670
  -exchange      EXHF   =         0.00000000
  -V(xc)+E(xc)   XCENC  =      -150.54449446
  PAW double counting   =      4720.50749719    -4368.21742377
  entropy T*S    EENTRO =         0.00000000
  eigenvalues    EBANDS =     -1033.60533173
  atomic energy  EATOM  =      4620.40415896
  Solvation  Ediel_sol  =         0.00000000
  ---------------------------------------------------
  free energy    TOTEN  =       -43.85393350 eV

  energy without entropy =      -43.85393350  energy(sigma->0) =      -43.85393350


--------------------------------------------------------------------------------------------------------




----------------------------------------- Iteration    1(   7)  ---------------------------------------


    POTLOK:  cpu time    0.0360: real time    0.0359
    SETDIJ:  cpu time    0.0070: real time    0.0072
     EDDAV:  cpu time    5.6001: real time    5.6056
 BZINTS: Fermi energy:  2.456205; 52.000000 electrons
         Band energy:-835.603178;  BLOECHL correction: -0.000107
       DOS:  cpu time    0.0130: real time    0.0132
    CHARGE:  cpu time    0.1870: real time    0.1880
    MIXING:  cpu time    0.0020: real time    0.0017
    --------------------------------------------
      LOOP:  cpu time    5.8461: real time    5.8543

 eigenvalue-minimisations  :  5712
 total energy-change (2. order) :-0.1632245E+02  (-0.5061059E+01)
 number of electron      51.9999994 magnetization 
 augmentation part       -9.4136111 magnetization 

 Broyden mixing:
  rms(total) = 0.12477E+02    rms(broyden)= 0.12477E+02
  rms(prec ) = 0.12493E+02
  weight for this iteration     100.00

 eigenvalues of (default mixing * dielectric matrix)
  average eigenvalue GAMMA=   1.4987
  0.7913  2.2062

 Free energy of the ion-electron system (eV)
  ---------------------------------------------------
  alpha Z        PSCENC =        30.19755253
  Ewald energy   TEWEN  =     48214.97414447
  -Hartree energ DENC   =    -52303.55271112
  -exchange      EXHF   =         0.00000000
  -V(xc)+E(xc)   XCENC  =      -148.63594909
  PAW double counting   =      7979.48957350    -7617.44997708
  entropy T*S    EENTRO =         0.00000000
  eigenvalues    EBANDS =      -835.60317834
  atomic energy  EATOM  =      4620.40415896
  Solvation  Ediel_sol  =         0.00000000
  ---------------------------------------------------
  free energy    TOTEN  =       -60.17638616 eV

  energy without entropy =      -60.17638616  energy(sigma->0) =      -60.17638616


--------------------------------------------------------------------------------------------------------




----------------------------------------- Iteration    1(   8)  ---------------------------------------


    POTLOK:  cpu time    0.0380: real time    0.0384
    SETDIJ:  cpu time    0.0070: real time    0.0070
     EDDAV:  cpu time    6.1401: real time    6.1512
 BZINTS: Fermi energy: -1.428457; 52.000000 electrons
         Band energy:***********;  BLOECHL correction:  0.000000
       DOS:  cpu time    0.0030: real time    0.0029
    CHARGE:  cpu time    0.1940: real time    0.1948
    MIXING:  cpu time    0.0010: real time    0.0015
    --------------------------------------------
      LOOP:  cpu time    6.3840: real time    6.3986

 eigenvalue-minimisations  :  6076
 total energy-change (2. order) : 0.1750036E+02  (-0.3403961E+01)
 number of electron      51.9999994 magnetization 
 augmentation part       -8.6431182 magnetization 

 Broyden mixing:
  rms(total) = 0.21754E+00    rms(broyden)= 0.21745E+00
  rms(prec ) = 0.21814E+00
  weight for this iteration     100.00

 eigenvalues of (default mixing * dielectric matrix)
  average eigenvalue GAMMA=   1.3335
  2.3982  0.8011  0.8011

 Free energy of the ion-electron system (eV)
  ---------------------------------------------------
  alpha Z        PSCENC =        30.19755253
  Ewald energy   TEWEN  =     48214.97414447
  -Hartree energ DENC   =    -52111.82410438
  -exchange      EXHF   =         0.00000000
  -V(xc)+E(xc)   XCENC  =      -150.47994461
  PAW double counting   =      6082.10985054    -5726.71544392
  entropy T*S    EENTRO =         0.00000000
  eigenvalues    EBANDS =     -1001.34223977
  atomic energy  EATOM  =      4620.40415896
  Solvation  Ediel_sol  =         0.00000000
  ---------------------------------------------------
  free energy    TOTEN  =       -42.67602618 eV

  energy without entropy =      -42.67602618  energy(sigma->0) =      -42.67602618


--------------------------------------------------------------------------------------------------------




----------------------------------------- Iteration    1(   9)  ---------------------------------------


    POTLOK:  cpu time    0.0390: real time    0.0392
    SETDIJ:  cpu time    0.0070: real time    0.0072
     EDDAV:  cpu time    4.9472: real time    4.9545
 BZINTS: Fermi energy: -1.464486; 52.000000 electrons
         Band energy:-999.276903;  BLOECHL correction:  0.000000
       DOS:  cpu time    0.0030: real time    0.0029
    CHARGE:  cpu time    0.1910: real time    0.1920
    MIXING:  cpu time    0.0020: real time    0.0015
    --------------------------------------------
      LOOP:  cpu time    5.1902: real time    5.1997

 eigenvalue-minimisations  :  4760
 total energy-change (2. order) :-0.3179141E+00  (-0.3318338E+00)
 number of electron      51.9999994 magnetization 
 augmentation part       -8.6341552 magnetization 

 Broyden mixing:
  rms(total) = 0.93332E+00    rms(broyden)= 0.93331E+00
  rms(prec ) = 0.93339E+00
  weight for this iteration     100.00

 eigenvalues of (default mixing * dielectric matrix)
  average eigenvalue GAMMA=   1.0414
  2.3332  0.8276  0.8276  0.1771

 Free energy of the ion-electron system (eV)
  ---------------------------------------------------
  alpha Z        PSCENC =        30.19755253
  Ewald energy   TEWEN  =     48214.97414447
  -Hartree energ DENC   =    -52114.28666863
  -exchange      EXHF   =         0.00000000
  -V(xc)+E(xc)   XCENC  =      -150.49602527
  PAW double counting   =      6178.85220935    -5823.36240842
  entropy T*S    EENTRO =         0.00000000
  eigenvalues    EBANDS =      -999.27690328
  atomic energy  EATOM  =      4620.40415896
  Solvation  Ediel_sol  =         0.00000000
  ---------------------------------------------------
  free energy    TOTEN  =       -42.99394029 eV

  energy without entropy =      -42.99394029  energy(sigma->0) =      -42.99394029


--------------------------------------------------------------------------------------------------------




----------------------------------------- Iteration    1(  10)  ---------------------------------------


    POTLOK:  cpu time    0.0370: real time    0.0373
    SETDIJ:  cpu time    0.0070: real time    0.0069
     EDDAV:  cpu time    6.6900: real time    6.6940
 BZINTS: Fermi energy: -1.241757; 52.000000 electrons
         Band energy:-998.574326;  BLOECHL correction:  0.000000
       DOS:  cpu time    0.0030: real time    0.0033
    CHARGE:  cpu time    0.1860: real time    0.1857
    MIXING:  cpu time    0.0010: real time    0.0016
    --------------------------------------------
      LOOP:  cpu time    6.9249: real time    6.9314

 eigenvalue-minimisations  :  7168
 total energy-change (2. order) :-0.3725794E-02  (-0.5329275E-02)
 number of electron      51.9999994 magnetization 
 augmentation part       -8.6335498 magnetization 

 Broyden mixing:
  rms(total) = 0.73336E+00    rms(broyden)= 0.73336E+00
  rms(prec ) = 0.73345E+00
  weight for this iteration     100.00

 eigenvalues of (default mixing * dielectric matrix)
  average eigenvalue GAMMA=   1.2328
  1.8860  1.3462  1.3462  0.7928  0.7928

 Free energy of the ion-electron system (eV)
  ---------------------------------------------------
  alpha Z        PSCENC =        30.19755253
  Ewald energy   TEWEN  =     48214.97414447
  -Hartree energ DENC   =    -52115.00677422
  -exchange      EXHF   =         0.00000000
  -V(xc)+E(xc)   XCENC  =      -150.48768789
  PAW double counting   =      6124.97751976    -5769.48225361
  entropy T*S    EENTRO =         0.00000000
  eigenvalues    EBANDS =      -998.57432608
  atomic energy  EATOM  =      4620.40415896
  Solvation  Ediel_sol  =         0.00000000
  ---------------------------------------------------
  free energy    TOTEN  =       -42.99766609 eV

  energy without entropy =      -42.99766609  energy(sigma->0) =      -42.99766609


--------------------------------------------------------------------------------------------------------




----------------------------------------- Iteration    1(  11)  ---------------------------------------


    POTLOK:  cpu time    0.0380: real time    0.0378
    SETDIJ:  cpu time    0.0070: real time    0.0071
     EDDAV:  cpu time    5.8321: real time    5.8512
 BZINTS: Fermi energy: -1.245842; 52.000000 electrons
         Band energy:-992.389114;  BLOECHL correction:  0.000000
       DOS:  cpu time    0.0030: real time    0.0032
    CHARGE:  cpu time    0.1900: real time    0.1896
    MIXING:  cpu time    0.0010: real time    0.0016
    --------------------------------------------
      LOOP:  cpu time    6.0721: real time    6.0940

 eigenvalue-minimisations  :  5768
 total energy-change (2. order) : 0.8044341E-02  (-0.6458062E-03)
 number of electron      51.9999994 magnetization 
 augmentation part       -8.6327125 magnetization 

 Broyden mixing:
  rms(total) = 0.21817E+00    rms(broyden)= 0.21817E+00
  rms(prec ) = 0.21826E+00
  weight for this iteration     100.00

 eigenvalues of (default mixing * dielectric matrix)
  average eigenvalue GAMMA=   1.3772
  2.4491  2.4491  0.9414  0.9414  0.8493  0.6330

 Free energy of the ion-electron system (eV)
  ---------------------------------------------------
  alpha Z        PSCENC =        30.19755253
  Ewald energy   TEWEN  =     48214.97414447
  -Hartree energ DENC   =    -52121.47216444
  -exchange      EXHF   =         0.00000000
  -V(xc)+E(xc)   XCENC  =      -150.44260086
  PAW double counting   =      5961.19181636    -5605.45341515
  entropy T*S    EENTRO =         0.00000000
  eigenvalues    EBANDS =      -992.38911361
  atomic energy  EATOM  =      4620.40415896
  Solvation  Ediel_sol  =         0.00000000
  ---------------------------------------------------
  free energy    TOTEN  =       -42.98962174 eV

  energy without entropy =      -42.98962174  energy(sigma->0) =      -42.98962174


--------------------------------------------------------------------------------------------------------




----------------------------------------- Iteration    1(  12)  ---------------------------------------


    POTLOK:  cpu time    0.0370: real time    0.0372
    SETDIJ:  cpu time    0.0070: real time    0.0071
     EDDAV:  cpu time    6.3360: real time    6.3450
 BZINTS: Fermi energy: -1.178727; 52.000000 electrons
         Band energy:-988.052908;  BLOECHL correction:  0.000000
       DOS:  cpu time    0.0030: real time    0.0030
    CHARGE:  cpu time    0.1860: real time    0.1855
    MIXING:  cpu time    0.0010: real time    0.0018
    --------------------------------------------
      LOOP:  cpu time    6.5710: real time    6.5820

 eigenvalue-minimisations  :  6300
 total energy-change (2. order) : 0.2453771E-02  (-0.4353455E-03)
 number of electron      51.9999994 magnetization 
 augmentation part       -8.6242541 magnetization 

 Broyden mixing:
  rms(total) = 0.55679E-01    rms(broyden)= 0.55678E-01
  rms(prec ) = 0.55786E-01
  weight for this iteration     100.00

 eigenvalues of (default mixing * dielectric matrix)
  average eigenvalue GAMMA=   1.3548
  2.3380  2.3380  1.2604  1.2604  0.7816  0.7816  0.7236

 Free energy of the ion-electron system (eV)
  ---------------------------------------------------
  alpha Z        PSCENC =        30.19755253
  Ewald energy   TEWEN  =     48214.97414447
  -Hartree energ DENC   =    -52125.99399732
  -exchange      EXHF   =         0.00000000
  -V(xc)+E(xc)   XCENC  =      -150.42249579
  PAW double counting   =      5883.85068018    -5527.94430300
  entropy T*S    EENTRO =         0.00000000
  eigenvalues    EBANDS =      -988.05290801
  atomic energy  EATOM  =      4620.40415896
  Solvation  Ediel_sol  =         0.00000000
  ---------------------------------------------------
  free energy    TOTEN  =       -42.98716797 eV

  energy without entropy =      -42.98716797  energy(sigma->0) =      -42.98716797


--------------------------------------------------------------------------------------------------------




----------------------------------------- Iteration    1(  13)  ---------------------------------------


    POTLOK:  cpu time    0.0390: real time    0.0397
    SETDIJ:  cpu time    0.0070: real time    0.0070
     EDDAV:  cpu time    5.6591: real time    5.6676
 BZINTS: Fermi energy: -1.182160; 52.000000 electrons
         Band energy:-985.941336;  BLOECHL correction:  0.000000
       DOS:  cpu time    0.0030: real time    0.0029
    CHARGE:  cpu time    0.1870: real time    0.1867
    MIXING:  cpu time    0.0010: real time    0.0017
    --------------------------------------------
      LOOP:  cpu time    5.8971: real time    5.9105

 eigenvalue-minimisations  :  5964
 total energy-change (2. order) : 0.4923500E-03  (-0.7106590E-04)
 number of electron      51.9999994 magnetization 
 augmentation part       -8.6264581 magnetization 

 Broyden mixing:
  rms(total) = 0.17270E-01    rms(broyden)= 0.17270E-01
  rms(prec ) = 0.17401E-01
  weight for this iteration     100.00

 eigenvalues of (default mixing * dielectric matrix)
  average eigenvalue GAMMA=   1.4336
  2.5994  2.5994  1.5749  1.5749  0.9445  0.7663  0.7663  0.6428

 Free energy of the ion-electron system (eV)
  ---------------------------------------------------
  alpha Z        PSCENC =        30.19755253
  Ewald energy   TEWEN  =     48214.97414447
  -Hartree energ DENC   =    -52128.17214821
  -exchange      EXHF   =         0.00000000
  -V(xc)+E(xc)   XCENC  =      -150.39700006
  PAW double counting   =      5856.68596141    -5500.73800904
  entropy T*S    EENTRO =         0.00000000
  eigenvalues    EBANDS =      -985.94133569
  atomic energy  EATOM  =      4620.40415896
  Solvation  Ediel_sol  =         0.00000000
  ---------------------------------------------------
  free energy    TOTEN  =       -42.98667562 eV

  energy without entropy =      -42.98667562  energy(sigma->0) =      -42.98667562


--------------------------------------------------------------------------------------------------------




----------------------------------------- Iteration    1(  14)  ---------------------------------------


    POTLOK:  cpu time    0.0360: real time    0.0367
    SETDIJ:  cpu time    0.0070: real time    0.0070
     EDDAV:  cpu time    5.9911: real time    6.0012
 BZINTS: Fermi energy: -1.170555; 52.000000 electrons
         Band energy:-983.808324;  BLOECHL correction:  0.000000
       DOS:  cpu time    0.0020: real time    0.0030
    CHARGE:  cpu time    0.1910: real time    0.1915
    MIXING:  cpu time    0.0020: real time    0.0022
    --------------------------------------------
      LOOP:  cpu time    6.2311: real time    6.2445

 eigenvalue-minimisations  :  5964
 total energy-change (2. order) : 0.2519895E-03  (-0.1563596E-04)
 number of electron      51.9999994 magnetization 
 augmentation part       -8.6253619 magnetization 

 Broyden mixing:
  rms(total) = 0.52507E-02    rms(broyden)= 0.52506E-02
  rms(prec ) = 0.54101E-02
  weight for this iteration     100.00

 eigenvalues of (default mixing * dielectric matrix)
  average eigenvalue GAMMA=   1.4724
[...]
    --------------------------------------------
      LOOP:  cpu time    6.5580: real time    6.5732

 Broyden mixing:
  rms(total) = 0.28043E-04    rms(broyden)= 0.28042E-04
  rms(prec ) = 0.33607E-04
  weight for this iteration     100.00

 eigenvalues of (default mixing * dielectric matrix)
  average eigenvalue GAMMA=   2.3041
  7.5159  6.4232  3.3244  3.3244  2.3574  2.3574  1.7439  1.5264  0.8067  1.0294
  1.0294  0.9466  0.9466  0.6199  0.6094

 Free energy of the ion-electron system (eV)
  ---------------------------------------------------
  -Hartree energ DENC   =        -0.42787249
  -V(xc)+E(xc)   XCENC  =         0.00675878
  PAW double counting   =         0.01031947       -0.01018906
  entropy T*S    EENTRO =         0.00000000
  eigenvalues    EBANDS =        -0.09788054
  ---------------------------------------------------
  free energy    TOTEN  =        -0.51886385 eV

  energy without entropy =       -0.51886385


----------------------------------------- Iteration    3(  18)  ---------------------------------------


   POT+DIJ:  cpu time    0.0930: real time    0.0940
    HAMIL1:  cpu time    1.0598: real time    1.0607
    LRDIAG:  cpu time    0.1580: real time    0.1591
    LRDIIS:  cpu time    4.3233: real time    4.3262
    LRDIAG:  cpu time    0.1520: real time    0.1515
    MIXING:  cpu time    0.0020: real time    0.0019
    --------------------------------------------
      LOOP:  cpu time    6.1851: real time    6.1930

 Broyden mixing:
  rms(total) = 0.16200E-04    rms(broyden)= 0.16199E-04
  rms(prec ) = 0.17663E-04
  weight for this iteration     100.00

 eigenvalues of (default mixing * dielectric matrix)
  average eigenvalue GAMMA=   2.2744
  7.6907  6.6757  3.5485  3.5485  2.2854  2.2854  1.7135  1.5316  0.6199  1.1189
  1.1189  0.8069  0.9779  0.9779  0.8786  0.6116

 Free energy of the ion-electron system (eV)
  ---------------------------------------------------
  -Hartree energ DENC   =        -0.42788522
  -V(xc)+E(xc)   XCENC  =         0.00675969
  PAW double counting   =         0.01031868       -0.01018825
  entropy T*S    EENTRO =         0.00000000
  eigenvalues    EBANDS =        -0.09786949
  ---------------------------------------------------
  free energy    TOTEN  =        -0.51886459 eV

  energy without entropy =       -0.51886459


----------------------------------------- Iteration    3(  19)  ---------------------------------------


   POT+DIJ:  cpu time    0.0940: real time    0.0954
    HAMIL1:  cpu time    1.0528: real time    1.0563
    LRDIAG:  cpu time    0.1650: real time    0.1651
    LRDIIS:  cpu time    4.7423: real time    4.7484
    LRDIAG:  cpu time    0.1510: real time    0.1510
    MIXING:  cpu time    0.0020: real time    0.0020
    --------------------------------------------
      LOOP:  cpu time    6.6050: real time    6.6170

 Broyden mixing:
  rms(total) = 0.15420E-04    rms(broyden)= 0.15420E-04
  rms(prec ) = 0.16180E-04
  weight for this iteration     100.00

 eigenvalues of (default mixing * dielectric matrix)
  average eigenvalue GAMMA=   2.3945
  8.2166  7.1724  4.2248  3.6849  2.5894  2.5894  1.9080  1.9080  1.4918  0.8068
  1.0450  0.9838  0.9838  0.9347  0.9347  0.6199  0.6119

 Free energy of the ion-electron system (eV)
  ---------------------------------------------------
  -Hartree energ DENC   =        -0.42788520
  -V(xc)+E(xc)   XCENC  =         0.00675958
  PAW double counting   =         0.01031770       -0.01018725
  entropy T*S    EENTRO =         0.00000000
  eigenvalues    EBANDS =        -0.09786802
  ---------------------------------------------------
  free energy    TOTEN  =        -0.51886320 eV

  energy without entropy =       -0.51886320


----------------------------------------- Iteration    3(  20)  ---------------------------------------


   POT+DIJ:  cpu time    0.0940: real time    0.0942
    HAMIL1:  cpu time    1.0618: real time    1.0646
    LRDIAG:  cpu time    0.1590: real time    0.1582
    LRDIIS:  cpu time    4.4273: real time    4.4330
    LRDIAG:  cpu time    0.1510: real time    0.1515
    MIXING:  cpu time    0.0020: real time    0.0021
    --------------------------------------------
      LOOP:  cpu time    6.2990: real time    6.3099

 Broyden mixing:
  rms(total) = 0.45628E-05    rms(broyden)= 0.45627E-05
  rms(prec ) = 0.48654E-05
  weight for this iteration     100.00

 eigenvalues of (default mixing * dielectric matrix)
  average eigenvalue GAMMA=   2.3695
  8.4541  7.2136  4.5002  3.6570  2.6312  2.6312  1.9121  1.9121  1.4091  1.4091
  1.0856  0.8068  0.9556  0.9556  0.9428  0.9428  0.6199  0.6119

 Free energy of the ion-electron system (eV)
  ---------------------------------------------------
  -Hartree energ DENC   =        -0.42788153
  -V(xc)+E(xc)   XCENC  =         0.00675839
  PAW double counting   =         0.01032644       -0.01019609
  entropy T*S    EENTRO =         0.00000000
  eigenvalues    EBANDS =        -0.09786764
  ---------------------------------------------------
  free energy    TOTEN  =        -0.51886044 eV

  energy without entropy =       -0.51886044


----------------------------------------- Iteration    3(  21)  ---------------------------------------


   POT+DIJ:  cpu time    0.0940: real time    0.0943
    HAMIL1:  cpu time    1.0498: real time    1.0522
    LRDIAG:  cpu time    0.1580: real time    0.1583
    LRDIIS:  cpu time    4.6553: real time    4.6593
    LRDIAG:  cpu time    0.1560: real time    0.1564
    MIXING:  cpu time    0.0020: real time    0.0022
    --------------------------------------------
      LOOP:  cpu time    6.5190: real time    6.5287

 Broyden mixing:
  rms(total) = 0.27981E-05    rms(broyden)= 0.27981E-05
  rms(prec ) = 0.30226E-05
  weight for this iteration     100.00

 eigenvalues of (default mixing * dielectric matrix)
  average eigenvalue GAMMA=   2.4198
  8.7833  7.3519  4.9884  3.8632  2.8342  2.8342  2.1506  2.1506  1.7648  1.5049
  0.6199  1.0598  0.9419  0.9419  0.9881  0.9597  0.6119  0.8066  0.8200

 Free energy of the ion-electron system (eV)
  ---------------------------------------------------
  -Hartree energ DENC   =        -0.42788178
  -V(xc)+E(xc)   XCENC  =         0.00675821
  PAW double counting   =         0.01032565       -0.01019529
  entropy T*S    EENTRO =         0.00000000
  eigenvalues    EBANDS =        -0.09786463
  ---------------------------------------------------
  free energy    TOTEN  =        -0.51885785 eV

  energy without entropy =       -0.51885785


----------------------------------------- Iteration    3(  22)  ---------------------------------------


   POT+DIJ:  cpu time    0.0940: real time    0.0950
    HAMIL1:  cpu time    1.0548: real time    1.0574
    LRDIAG:  cpu time    0.1580: real time    0.1588
    LRDIIS:  cpu time    4.3933: real time    4.3976
    LRDIAG:  cpu time    0.1500: real time    0.1512
    MIXING:  cpu time    0.0020: real time    0.0022
    --------------------------------------------
      LOOP:  cpu time    6.2500: real time    6.2615

 Broyden mixing:
  rms(total) = 0.88685E-06    rms(broyden)= 0.88679E-06
  rms(prec ) = 0.10049E-05
  weight for this iteration     100.00

 eigenvalues of (default mixing * dielectric matrix)
  average eigenvalue GAMMA=   2.4019
  8.8857  7.4518  5.1463  4.0505  2.8818  2.8818  2.1182  2.1182  1.6335  1.6335
  1.5261  1.0683  0.9685  0.9685  0.9525  0.9284  0.8068  0.6199  0.6119  0.7855

 Free energy of the ion-electron system (eV)
  ---------------------------------------------------
  -Hartree energ DENC   =        -0.42788249
  -V(xc)+E(xc)   XCENC  =         0.00675802
  PAW double counting   =         0.01032412       -0.01019374
  entropy T*S    EENTRO =         0.00000000
  eigenvalues    EBANDS =        -0.09786284
  ---------------------------------------------------
  free energy    TOTEN  =        -0.51885694 eV

  energy without entropy =       -0.51885694


------------------------ aborting loop because EDIFF is reached ----------------------------------------


 change of polarisation eV/A/(eV/A) component  3 :    -0.004     0.003     1.017
 dielectric tensor                  component  3 :    -0.001     0.001     1.337


--------------------------------------------------------------------------------------------------------


    FORLOC:  cpu time    0.0030: real time    0.0025
    FORNL :  cpu time    0.5359: real time    0.5361
    STRESS:  cpu time    2.6896: real time    2.6913
    FORCOR:  cpu time    0.0370: real time    0.0369
    OFIELD:  cpu time    0.0000: real time    0.0003

  Hirshfeld charges:
            ion         q(e)     
   ------------------------------
      1     W           0.216
      2     W           0.216
      3     Te         -0.108
      4     Te         -0.108
      5     Te         -0.108
      6     Te         -0.107

  Tkatchenko/Scheffler method for vdW energy calculation
  ---------------------------------------------------------------------------------------------

  Parameters of vdW forcefield:
            C6ts              R0ts           ALPHAts        RELVOL
            (au)              (au)            (au)                
   ---------------------------------------------------------------
   W         919.802          4.138         73.990          1.042
   W         919.802          4.138         73.990          1.042
   Te        408.947          4.237         38.260          1.016
   Te        401.501          4.224         37.911          1.007
   Te        401.502          4.224         37.911          1.007
   Te        408.946          4.237         38.260          1.016
  Edisp (eV):   -1.67794
    FORVDW:  cpu time    0.2020: real time    0.2020
    FORLOC:  cpu time    0.0030: real time    0.0025
    FORNL :  cpu time    0.5359: real time    0.5360
    STRESS:  cpu time    2.6866: real time    2.6909
    FORCOR:  cpu time    0.0370: real time    0.0370
    OFIELD:  cpu time    0.0010: real time    0.0003

  Hirshfeld charges:
            ion         q(e)     
   ------------------------------
      1     W           0.216
      2     W           0.216
      3     Te         -0.107
      4     Te         -0.108
      5     Te         -0.108
      6     Te         -0.108

  Tkatchenko/Scheffler method for vdW energy calculation
  ---------------------------------------------------------------------------------------------

  Parameters of vdW forcefield:
            C6ts              R0ts           ALPHAts        RELVOL
            (au)              (au)            (au)                
   ---------------------------------------------------------------
   W         919.802          4.138         73.990          1.042
   W         919.802          4.138         73.990          1.042
   Te        408.946          4.237         38.260          1.016
   Te        401.502          4.224         37.911          1.007
   Te        401.501          4.224         37.911          1.007
   Te        408.947          4.237         38.260          1.016
  Edisp (eV):   -1.67794
    FORVDW:  cpu time    0.2020: real time    0.2020
    FORNLD:  cpu time    2.1587: real time    2.1606

 PIEZOELECTRIC TENSOR FIELD DIRECTION 3  (e Angst)
 -----------------------------------------------------------------------------
     0.00200 -0.00000  0.00000           ( -0.00000 -0.00000  0.00000)
    -0.00000  0.00200  0.00000           (  0.00000 -0.00000  0.00000)
     0.00000  0.00000 -0.00126           (  0.00000 -0.00000  0.00000)

 PIEZOELECTRIC TENSOR FIELD DIRECTION 3  (C/m^2)
 -----------------------------------------------------------------------------
     0.00006 -0.00000  0.00000
    -0.00000  0.00006  0.00000
     0.00000  0.00000 -0.00004


      POSITION         DIRECTION 3           BORN EFFECTIVE CHARGE    (rigid.aug.   ionic)
 -----------------------------------------------------------------------------------------
     -0.00000      1.02482     21.47000     0.00000 -0.00000 -5.45251 (  1.94634 14.00000)
      1.77504      2.04964     28.53000     0.00000  0.00000 -5.45438 (  1.94634 14.00000)
      1.77504      2.04964     23.28196     0.00000  0.00000  0.09206 (  1.18308  6.00000)
      1.77504      2.04964     19.65804     0.00000 -0.00000  0.30946 (  1.18266  6.00000)
     -0.00000      1.02482     30.34196    -0.00000  0.00000  0.30495 (  1.18266  6.00000)
     -0.00000      1.02482     26.71804    -0.00000 -0.00000  0.08798 (  1.18308  6.00000)
 -----------------------------------------------------------------------------------------
    total drift (improves with k-points):   0.00000 -0.00000-10.11244




--------------------------------------------------------------------------------------------------------


  LATTYP: Found a hexagonal cell.
 ALAT       =     3.5500762221
 C/A-ratio  =    14.0842046402
  
  Lattice vectors:
  
 A1 = (   3.5500762221,   0.0000000000,   0.0000000000)
 A2 = (  -1.7750381110,   3.0744561937,   0.0000000000)
 A3 = (   0.0000000000,   0.0000000000,  50.0000000000)


Analysis of symmetry for initial positions (statically):
=====================================================================
 Subroutine PRICEL returns:
 Original cell was already a primitive cell.
 

 Routine SETGRP: Setting up the symmetry group for a 
 hexagonal supercell.


 Subroutine GETGRP returns: Found 12 space group operations
 (whereof  4 operations were pure point group operations)
 out of a pool of 24 trial point group operations.


The static configuration has the point symmetry C_2h.
 The point group associated with its full space group is D_3d.


Analysis of symmetry for dynamics (positions and initial velocities):
=====================================================================
 Subroutine PRICEL returns:
 Original cell was already a primitive cell.
 

 Routine SETGRP: Setting up the symmetry group for a 
 hexagonal supercell.


 Subroutine GETGRP returns: Found 12 space group operations
 (whereof  4 operations were pure point group operations)
 out of a pool of 24 trial point group operations.


The dynamic configuration has the point symmetry C_2h.
 The point group associated with its full space group is D_3d.


 Subroutine INISYM returns: Found 12 space group operations
 (whereof  4 operations are pure point group operations),
 and found     1 'primitive' translations



 MACROSCOPIC STATIC DIELECTRIC TENSOR (including local field effects in DFT)
 ------------------------------------------------------
           5.975719     0.000000     0.000000
           0.000000     5.975719     0.000000
           0.000000    -0.000000     1.337336
 ------------------------------------------------------



--------------------------------------------------------------------------------------------------------


  LATTYP: Found a hexagonal cell.
 ALAT       =     3.5500762221
 C/A-ratio  =    14.0842046402
  
  Lattice vectors:
  
 A1 = (   3.5500762221,   0.0000000000,   0.0000000000)
 A2 = (  -1.7750381110,   3.0744561937,   0.0000000000)
 A3 = (   0.0000000000,   0.0000000000,  50.0000000000)


Analysis of symmetry for initial positions (statically):
=====================================================================
 Subroutine PRICEL returns:
 Original cell was already a primitive cell.
 

 Routine SETGRP: Setting up the symmetry group for a 
 hexagonal supercell.


 Subroutine GETGRP returns: Found 12 space group operations
 (whereof  4 operations were pure point group operations)
 out of a pool of 24 trial point group operations.


The static configuration has the point symmetry C_2h.
 The point group associated with its full space group is D_3d.


Analysis of symmetry for dynamics (positions and initial velocities):
=====================================================================
 Subroutine PRICEL returns:
 Original cell was already a primitive cell.
 

 Routine SETGRP: Setting up the symmetry group for a 
 hexagonal supercell.


 Subroutine GETGRP returns: Found 12 space group operations
 (whereof  4 operations were pure point group operations)
 out of a pool of 24 trial point group operations.


The dynamic configuration has the point symmetry C_2h.
 The point group associated with its full space group is D_3d.


 Subroutine INISYM returns: Found 12 space group operations
 (whereof  4 operations are pure point group operations),
 and found     1 'primitive' translations



--------------------------------------------------------------------------------------------------------




 MACROSCOPIC STATIC DIELECTRIC TENSOR (including local field effects in DFT)
 ------------------------------------------------------
           5.975719     0.000000     0.000000
           0.000000     5.975719     0.000000
           0.000000    -0.000000     1.337336
 ------------------------------------------------------


 PIEZOELECTRIC TENSOR  for field in x, y, z        (e  Angst)
          XX          YY          ZZ          XY          YZ          ZX
  --------------------------------------------------------------------------------
  x    -0.00487     0.00718    -0.00047     0.00000     0.00035     0.00000
  y    -0.00664     0.01215     0.00515     0.00000     0.00031     0.00000
  z     0.00200     0.00200    -0.00126    -0.00000     0.00000     0.00000

 PIEZOELECTRIC TENSOR  for field in x, y, z        (C/m^2)
          XX          YY          ZZ          XY          YZ          ZX
  --------------------------------------------------------------------------------
  x     0.00000     0.00000     0.00000     0.00000     0.00000     0.00000
  y     0.00000     0.00000     0.00000     0.00000     0.00000     0.00000
  z     0.00000     0.00000     0.00000     0.00000     0.00000     0.00000
 
 BORN EFFECTIVE CHARGES (in e, cummulative output)
 -------------------------------------------------
 ion    1
    1    -2.54467    -0.00051     0.00003
    2    -0.00000    -2.54556    -0.00007
    3     0.00000    -0.00000    -5.45251
 ion    2
    1    -2.54467     0.00051    -0.00003
    2     0.00000    -2.54379     0.00016
    3     0.00000     0.00000    -5.45438
 ion    3
    1     1.28328    -0.00183     0.00022
    2     0.00000     1.28373     0.00217
    3     0.00000     0.00000     0.09206
 ion    4
    1     1.27999    -0.00169    -0.00010
    2     0.00000     1.28040    -0.00139
    3     0.00000    -0.00000     0.30946
 ion    5
    1     1.27999     0.00169     0.00010
    2     0.00000     1.27958     0.00138
    3    -0.00000     0.00000     0.30495
 ion    6
    1     1.28328     0.00183    -0.00022
    2    -0.00000     1.28282    -0.00216
    3    -0.00000    -0.00000     0.08798


--------------------------------------------------------------------------------------------------------


 writing wavefunctions
     LOOP+:  cpu time 1303.9108: real time 1307.2119
    4ORBIT:  cpu time    0.0000: real time    0.0000
 BZINTS: Fermi energy: -1.079099; 52.000000 electrons
         Band energy:-979.142561;  BLOECHL correction:  0.000000

 total amount of memory used by VASP on root node   160465. kBytes
========================================================================

   base      :      30000. kBytes
   nonl-proj :     109283. kBytes
   fftplans  :       2517. kBytes
   grid      :       9951. kBytes
   one-center:        194. kBytes
   wavefun   :       8520. kBytes
 
  
  
 General timing and accounting informations for this job:
 ========================================================
  
                  Total CPU time used (sec):     1306.789
                            User time (sec):     1276.715
                          System time (sec):       30.074
                         Elapsed time (sec):     1311.525
  
                   Maximum memory used (kb):      481892.
                   Average memory used (kb):           0.
  
                          Minor page faults:      5740747
                          Major page faults:           10
                 Voluntary context switches:         5622
