unknown system                          
           1
     3.550076    0.000000    0.000000
    -1.775038    3.074456    0.000000
     0.000000    0.000000   50.000000
   W    Te
   2   4
Direct configuration=     1
   0.16666667  0.33333333  0.42940000
   0.83333333  0.66666667  0.57060000
   0.83333333  0.66666667  0.46563924
   0.83333333  0.66666667  0.39316076
   0.16666667  0.33333333  0.60683924
   0.16666667  0.33333333  0.53436076
