  18  18   0   0
  0.2441771E+02  0.3185946E-09  0.3185946E-09  0.5000000E-08  0.5000000E-15
  1.000000000000000E-004
  CAR 
 unknown system                          
     16.51398706    -74.51025414  301      4.45327510      1.00000000
    -74.510  0.0000E+00  0.0000E+00
    -74.207  0.0000E+00  0.0000E+00
    -73.903  0.0000E+00  0.0000E+00
    -73.600  0.0000E+00  0.0000E+00
    -73.297  0.0000E+00  0.0000E+00
    -72.993  0.0000E+00  0.0000E+00
    -72.690  0.0000E+00  0.0000E+00
    -72.386  0.0000E+00  0.0000E+00
    -72.083  0.0000E+00  0.0000E+00
    -71.780  0.0000E+00  0.0000E+00
    -71.476  0.0000E+00  0.0000E+00
    -71.173  0.0000E+00  0.0000E+00
    -70.869  0.0000E+00  0.0000E+00
    -70.566  0.0000E+00  0.0000E+00
    -70.262  0.0000E+00  0.1200E+02
    -69.959  0.0000E+00  0.1200E+02
    -69.656  0.0000E+00  0.1200E+02
    -69.352  0.0000E+00  0.1200E+02
    -69.049  0.0000E+00  0.1200E+02
    -68.745  0.0000E+00  0.1200E+02
    -68.442  0.0000E+00  0.1200E+02
    -68.139  0.0000E+00  0.1200E+02
    -67.835  0.0000E+00  0.1200E+02
    -67.532  0.0000E+00  0.1200E+02
    -67.228  0.0000E+00  0.1200E+02
    -66.925  0.0000E+00  0.1200E+02
    -66.621  0.0000E+00  0.1200E+02
    -66.318  0.0000E+00  0.1200E+02
    -66.015  0.0000E+00  0.1200E+02
    -65.711  0.0000E+00  0.1200E+02
    -65.408  0.0000E+00  0.1200E+02
    -65.104  0.0000E+00  0.1200E+02
    -64.801  0.0000E+00  0.1200E+02
    -64.498  0.0000E+00  0.1200E+02
    -64.194  0.0000E+00  0.1200E+02
    -63.891  0.0000E+00  0.1200E+02
    -63.587  0.0000E+00  0.1200E+02
    -63.284  0.0000E+00  0.1200E+02
    -62.981  0.0000E+00  0.1200E+02
    -62.677  0.0000E+00  0.1200E+02
    -62.374  0.0000E+00  0.1200E+02
    -62.070  0.0000E+00  0.1200E+02
    -61.767  0.0000E+00  0.1200E+02
    -61.463  0.0000E+00  0.1200E+02
    -61.160  0.0000E+00  0.1200E+02
    -60.857  0.0000E+00  0.1200E+02
    -60.553  0.0000E+00  0.1200E+02
    -60.250  0.0000E+00  0.1200E+02
    -59.946  0.0000E+00  0.1200E+02
    -59.643  0.0000E+00  0.1200E+02
    -59.340  0.0000E+00  0.1200E+02
    -59.036  0.0000E+00  0.1200E+02
    -58.733  0.0000E+00  0.1200E+02
    -58.429  0.0000E+00  0.1200E+02
    -58.126  0.0000E+00  0.1200E+02
    -57.822  0.0000E+00  0.1200E+02
    -57.519  0.0000E+00  0.1200E+02
    -57.216  0.0000E+00  0.1200E+02
    -56.912  0.0000E+00  0.1200E+02
    -56.609  0.0000E+00  0.1200E+02
    -56.305  0.0000E+00  0.1200E+02
    -56.002  0.0000E+00  0.1200E+02
    -55.699  0.0000E+00  0.1200E+02
    -55.395  0.0000E+00  0.1200E+02
    -55.092  0.0000E+00  0.1200E+02
    -54.788  0.0000E+00  0.1200E+02
    -54.485  0.0000E+00  0.1200E+02
    -54.182  0.0000E+00  0.1200E+02
    -53.878  0.0000E+00  0.1200E+02
    -53.575  0.0000E+00  0.1200E+02
    -53.271  0.0000E+00  0.1200E+02
    -52.968  0.0000E+00  0.1200E+02
    -52.664  0.0000E+00  0.1200E+02
    -52.361  0.0000E+00  0.1200E+02
    -52.058  0.0000E+00  0.1200E+02
    -51.754  0.0000E+00  0.1200E+02
    -51.451  0.0000E+00  0.1200E+02
    -51.147  0.0000E+00  0.1200E+02
    -50.844  0.0000E+00  0.1200E+02
    -50.541  0.0000E+00  0.1200E+02
    -50.237  0.0000E+00  0.1200E+02
    -49.934  0.0000E+00  0.1200E+02
    -49.630  0.0000E+00  0.1200E+02
    -49.327  0.0000E+00  0.1200E+02
    -49.023  0.0000E+00  0.1200E+02
    -48.720  0.0000E+00  0.1200E+02
    -48.417  0.0000E+00  0.1200E+02
    -48.113  0.0000E+00  0.1200E+02
    -47.810  0.0000E+00  0.1200E+02
    -47.506  0.0000E+00  0.1200E+02
    -47.203  0.0000E+00  0.1200E+02
    -46.900  0.0000E+00  0.1200E+02
    -46.596  0.0000E+00  0.1200E+02
    -46.293  0.0000E+00  0.1200E+02
    -45.989  0.0000E+00  0.1200E+02
    -45.686  0.0000E+00  0.1200E+02
    -45.382  0.0000E+00  0.1200E+02
    -45.079  0.0000E+00  0.1200E+02
    -44.776  0.0000E+00  0.1200E+02
    -44.472  0.0000E+00  0.1200E+02
    -44.169  0.0000E+00  0.1200E+02
    -43.865  0.0000E+00  0.1200E+02
    -43.562  0.0000E+00  0.1200E+02
    -43.259  0.0000E+00  0.1200E+02
    -42.955  0.0000E+00  0.1200E+02
    -42.652  0.0000E+00  0.1200E+02
    -42.348  0.0000E+00  0.1200E+02
    -42.045  0.0000E+00  0.1200E+02
    -41.742  0.0000E+00  0.1200E+02
    -41.438  0.0000E+00  0.1200E+02
    -41.135  0.0000E+00  0.1200E+02
    -40.831  0.0000E+00  0.1200E+02
    -40.528  0.0000E+00  0.1200E+02
    -40.224  0.0000E+00  0.1200E+02
    -39.921  0.0000E+00  0.1200E+02
    -39.618  0.0000E+00  0.1200E+02
    -39.314  0.0000E+00  0.1200E+02
    -39.011  0.0000E+00  0.1200E+02
    -38.707  0.0000E+00  0.1200E+02
    -38.404  0.0000E+00  0.1200E+02
    -38.101  0.0000E+00  0.1200E+02
    -37.797  0.0000E+00  0.1200E+02
    -37.494  0.0000E+00  0.1200E+02
    -37.190  0.0000E+00  0.1200E+02
    -36.887  0.0000E+00  0.1200E+02
    -36.583  0.0000E+00  0.1200E+02
    -36.280  0.0000E+00  0.1200E+02
    -35.977  0.0000E+00  0.1200E+02
    -35.673  0.0000E+00  0.1200E+02
    -35.370  0.0000E+00  0.1200E+02
    -35.066  0.0000E+00  0.1200E+02
    -34.763  0.1400E+02  0.1201E+02
    -34.460  0.6959E+02  0.4701E+02
    -34.156  0.0000E+00  0.4800E+02
    -33.853  0.0000E+00  0.4800E+02
    -33.549  0.0000E+00  0.4800E+02
    -33.246  0.0000E+00  0.4800E+02
    -32.943  0.0000E+00  0.4800E+02
    -32.639  0.0000E+00  0.4800E+02
    -32.336  0.0000E+00  0.4800E+02
    -32.032  0.0000E+00  0.4800E+02
    -31.729  0.0000E+00  0.4800E+02
    -31.425  0.0000E+00  0.4800E+02
    -31.122  0.0000E+00  0.4800E+02
    -30.819  0.0000E+00  0.4800E+02
    -30.515  0.0000E+00  0.4800E+02
    -30.212  0.0000E+00  0.4800E+02
    -29.908  0.0000E+00  0.4800E+02
    -29.605  0.0000E+00  0.4800E+02
    -29.302  0.0000E+00  0.4800E+02
    -28.998  0.0000E+00  0.4800E+02
    -28.695  0.0000E+00  0.4800E+02
    -28.391  0.0000E+00  0.4800E+02
    -28.088  0.0000E+00  0.4800E+02
    -27.784  0.0000E+00  0.4800E+02
    -27.481  0.0000E+00  0.4800E+02
    -27.178  0.0000E+00  0.4800E+02
    -26.874  0.0000E+00  0.4800E+02
    -26.571  0.0000E+00  0.4800E+02
    -26.267  0.0000E+00  0.4800E+02
    -25.964  0.0000E+00  0.4800E+02
    -25.661  0.0000E+00  0.4800E+02
    -25.357  0.0000E+00  0.4800E+02
    -25.054  0.0000E+00  0.4800E+02
    -24.750  0.0000E+00  0.4800E+02
    -24.447  0.0000E+00  0.4800E+02
    -24.144  0.0000E+00  0.4800E+02
    -23.840  0.0000E+00  0.4800E+02
    -23.537  0.0000E+00  0.4800E+02
    -23.233  0.0000E+00  0.4800E+02
    -22.930  0.0000E+00  0.4800E+02
    -22.626  0.0000E+00  0.4800E+02
    -22.323  0.0000E+00  0.4800E+02
    -22.020  0.0000E+00  0.4800E+02
    -21.716  0.0000E+00  0.4800E+02
    -21.413  0.0000E+00  0.4800E+02
    -21.109  0.0000E+00  0.4800E+02
    -20.806  0.0000E+00  0.4800E+02
    -20.503  0.0000E+00  0.4800E+02
    -20.199  0.0000E+00  0.4800E+02
    -19.896  0.0000E+00  0.4800E+02
    -19.592  0.0000E+00  0.4800E+02
    -19.289  0.0000E+00  0.4800E+02
    -18.985  0.0000E+00  0.4800E+02
    -18.682  0.0000E+00  0.4800E+02
    -18.379  0.0000E+00  0.4800E+02
    -18.075  0.0000E+00  0.4800E+02
    -17.772  0.0000E+00  0.4800E+02
    -17.468  0.0000E+00  0.4800E+02
    -17.165  0.0000E+00  0.4800E+02
    -16.862  0.0000E+00  0.4800E+02
    -16.558  0.0000E+00  0.4800E+02
    -16.255  0.0000E+00  0.4800E+02
    -15.951  0.0000E+00  0.4800E+02
    -15.648  0.0000E+00  0.4800E+02
    -15.344  0.0000E+00  0.4800E+02
    -15.041  0.0000E+00  0.4800E+02
    -14.738  0.0000E+00  0.4800E+02
    -14.434  0.0000E+00  0.4800E+02
    -14.131  0.0000E+00  0.4800E+02
    -13.827  0.0000E+00  0.4800E+02
    -13.524  0.0000E+00  0.4800E+02
    -13.221  0.0000E+00  0.4800E+02
    -12.917  0.0000E+00  0.4800E+02
    -12.614  0.0000E+00  0.4800E+02
    -12.310  0.0000E+00  0.4800E+02
    -12.007  0.0000E+00  0.4800E+02
    -11.704  0.0000E+00  0.4800E+02
    -11.400  0.0000E+00  0.4800E+02
    -11.097  0.8294E+00  0.4805E+02
    -10.793  0.2805E+01  0.4873E+02
    -10.490  0.3058E+01  0.4962E+02
    -10.186  0.3381E+01  0.5059E+02
     -9.883  0.3833E+01  0.5168E+02
     -9.580  0.6523E+01  0.5303E+02
     -9.276  0.1273E+02  0.5578E+02
     -8.973  0.2315E+02  0.6121E+02
     -8.669  0.3564E+02  0.6933E+02
     -8.366  0.0000E+00  0.7200E+02
     -8.063  0.0000E+00  0.7200E+02
     -7.759  0.0000E+00  0.7200E+02
     -7.456  0.0000E+00  0.7200E+02
     -7.152  0.0000E+00  0.7200E+02
     -6.849  0.0000E+00  0.7200E+02
     -6.545  0.0000E+00  0.7200E+02
     -6.242  0.0000E+00  0.7200E+02
     -5.939  0.0000E+00  0.7200E+02
     -5.635  0.0000E+00  0.7200E+02
     -5.332  0.0000E+00  0.7200E+02
     -5.028  0.0000E+00  0.7200E+02
     -4.725  0.0000E+00  0.7200E+02
     -4.422  0.0000E+00  0.7200E+02
     -4.118  0.0000E+00  0.7200E+02
     -3.815  0.0000E+00  0.7200E+02
     -3.511  0.0000E+00  0.7200E+02
     -3.208  0.0000E+00  0.7200E+02
     -2.905  0.1170E+01  0.7213E+02
     -2.601  0.7197E+01  0.7341E+02
     -2.298  0.9988E+01  0.7595E+02
     -1.994  0.1930E+02  0.8049E+02
     -1.691  0.1106E+02  0.8468E+02
     -1.387  0.9344E+01  0.8840E+02
     -1.084  0.9369E+01  0.9094E+02
     -0.781  0.1282E+02  0.9457E+02
     -0.477  0.2948E+02  0.1002E+03
     -0.174  0.9850E+01  0.1041E+03
      0.130  0.1315E+02  0.1073E+03
      0.433  0.1830E+02  0.1140E+03
      0.736  0.1021E+02  0.1181E+03
      1.040  0.1008E+02  0.1212E+03
      1.343  0.9261E+01  0.1242E+03
      1.647  0.2141E+02  0.1318E+03
      1.950  0.1538E+02  0.1371E+03
      2.254  0.1028E+02  0.1418E+03
      2.557  0.6604E+01  0.1436E+03
      2.860  0.2866E+02  0.1483E+03
      3.164  0.9755E+01  0.1524E+03
      3.467  0.5133E+01  0.1547E+03
      3.771  0.1277E+01  0.1556E+03
      4.074  0.5739E+00  0.1559E+03
      4.377  0.0000E+00  0.1560E+03
      4.681  0.0000E+00  0.1560E+03
      4.984  0.0000E+00  0.1560E+03
      5.288  0.0000E+00  0.1560E+03
      5.591  0.4584E+01  0.1566E+03
      5.894  0.1233E+02  0.1592E+03
      6.198  0.1806E+02  0.1637E+03
      6.501  0.2778E+02  0.1723E+03
      6.805  0.2306E+02  0.1794E+03
      7.108  0.1272E+02  0.1852E+03
      7.412  0.2061E+02  0.1890E+03
      7.715  0.8189E+01  0.1929E+03
      8.018  0.1207E+02  0.1956E+03
      8.322  0.9207E+01  0.1992E+03
      8.625  0.6019E+01  0.2018E+03
      8.929  0.5571E+01  0.2036E+03
      9.232  0.3666E+01  0.2051E+03
      9.535  0.4439E+01  0.2064E+03
      9.839  0.5377E+01  0.2078E+03
     10.142  0.6663E+01  0.2098E+03
     10.446  0.8768E+01  0.2122E+03
     10.749  0.7243E+01  0.2142E+03
     11.053  0.1212E+02  0.2167E+03
     11.356  0.9606E+01  0.2196E+03
     11.659  0.5689E+01  0.2220E+03
     11.963  0.3126E+01  0.2234E+03
     12.266  0.8333E+00  0.2239E+03
     12.570  0.0000E+00  0.2240E+03
     12.873  0.0000E+00  0.2240E+03
     13.176  0.0000E+00  0.2240E+03
     13.480  0.0000E+00  0.2240E+03
     13.783  0.0000E+00  0.2240E+03
     14.087  0.0000E+00  0.2240E+03
     14.390  0.0000E+00  0.2240E+03
     14.694  0.0000E+00  0.2240E+03
     14.997  0.0000E+00  0.2240E+03
     15.300  0.0000E+00  0.2240E+03
     15.604  0.0000E+00  0.2240E+03
     15.907  0.0000E+00  0.2240E+03
     16.211  0.0000E+00  0.2240E+03
     16.514  0.0000E+00  0.2240E+03
