       N       E                     dE             d eps       ncg     rms          rms(c)
DAV:   1     0.107333271000E+04    0.10733E+04   -0.67291E+04  9492   0.865E+02
DAV:   2    -0.871299291011E+02   -0.11605E+04   -0.11337E+04 10892   0.282E+02
DAV:   3    -0.167461398370E+03   -0.80331E+02   -0.79567E+02 10864   0.754E+01
DAV:   4    -0.170512885619E+03   -0.30515E+01   -0.30478E+01 13720   0.136E+01
DAV:   5    -0.170560493032E+03   -0.47607E-01   -0.47605E-01 11704   0.128E+00    0.188E+02
DAV:   6    -0.155406445821E+03    0.15154E+02   -0.51878E+01  9072   0.189E+01    0.173E+02
DAV:   7    -0.166354299236E+03   -0.10948E+02   -0.69362E+01  9436   0.203E+01    0.103E+02
DAV:   8    -0.153606092106E+03    0.12748E+02   -0.27572E+01  8876   0.147E+01    0.220E+00
DAV:   9    -0.153937230961E+03   -0.33114E+00   -0.35465E+00 11060   0.382E+00    0.512E+00
DAV:  10    -0.153931935655E+03    0.52953E-02   -0.75434E-02 11060   0.719E-01    0.395E+00
DAV:  11    -0.153910190337E+03    0.21745E-01   -0.42621E-02 11088   0.541E-01    0.146E+00
DAV:  12    -0.153910878365E+03   -0.68803E-03   -0.27008E-02 10724   0.419E-01    0.396E+00
DAV:  13    -0.153909560868E+03    0.13175E-02   -0.60055E-03  9912   0.170E-01    0.180E+00
DAV:  14    -0.153909516974E+03    0.43894E-04   -0.13010E-03 10752   0.711E-02    0.492E-01
DAV:  15    -0.153909558301E+03   -0.41326E-04   -0.19249E-04 10752   0.340E-02    0.251E-01
DAV:  16    -0.153909537795E+03    0.20505E-04   -0.95833E-05 10388   0.258E-02    0.119E-01
DAV:  17    -0.153909556365E+03   -0.18570E-04   -0.46802E-05 10752   0.174E-02    0.393E-02
DAV:  18    -0.153909613989E+03   -0.57624E-04   -0.17613E-05 11060   0.106E-02    0.302E-02
DAV:  19    -0.153909643541E+03   -0.29552E-04   -0.41899E-06 10948   0.449E-03    0.162E-02
DAV:  20    -0.153909656846E+03   -0.13305E-04   -0.69674E-07 10556   0.194E-03    0.188E-02
DAV:  21    -0.153909684753E+03   -0.27906E-04   -0.25438E-06 10024   0.275E-03    0.773E-03
DAV:  22    -0.153909689032E+03   -0.42788E-05   -0.40868E-07 11060   0.152E-03    0.663E-03
DAV:  23    -0.153909691432E+03   -0.24006E-05   -0.20035E-07 10136   0.903E-04    0.697E-03
DAV:  24    -0.153909696382E+03   -0.49502E-05   -0.90242E-08 10220   0.744E-04    0.175E-03
DAV:  25    -0.153909699424E+03   -0.30421E-05   -0.50420E-08  9380   0.522E-04    0.144E-03
DAV:  26    -0.153909702230E+03   -0.28058E-05   -0.23762E-08  8036   0.370E-04    0.188E-03
DAV:  27    -0.153909704131E+03   -0.19007E-05   -0.18232E-08  7924   0.290E-04    0.146E-03
DAV:  28    -0.153909704903E+03   -0.77177E-06   -0.12081E-08  7532   0.252E-04    0.147E-04
DAV:  29    -0.153909704986E+03   -0.83019E-07   -0.13340E-09  7504   0.988E-05    0.223E-04
DAV:  30    -0.153909705009E+03   -0.23687E-07   -0.23081E-10  7000   0.515E-05    0.176E-04
DAV:  31    -0.153909705016E+03   -0.70577E-08   -0.13526E-10  6608   0.294E-05
   1 F= -.15900593E+03 E0= -.15900593E+03  d E =0.000000E+00
 Linear response reoptimize wavefunctions
DAV:   1    -0.153909705018E+03    0.50962E+01   -0.82725E-11  6524   0.381E-05
DAV:   2    -0.153909705018E+03   -0.14552E-10    0.25542E-11  6860   0.112E-05
 Linear response G [H, r] |phi>, progress :
  Direction:   1
       N       E                     dE             d eps       ncg     rms
RMM:   1    -0.685724167625E+03   -0.68572E+03    0.27806E+03 19600   0.136E+02
RMM:   2    -0.664202783924E+03    0.21521E+02   -0.22276E+02 17584   0.293E+01
RMM:   3    -0.665791710162E+03   -0.15889E+01   -0.91720E+00 18137   0.625E+00
RMM:   4    -0.665893352118E+03   -0.10164E+00   -0.54455E-01 20211   0.125E+00
RMM:   5    -0.665892835100E+03    0.51702E-03   -0.36204E-02 19280   0.328E-01
RMM:   6    -0.665892977772E+03   -0.14267E-03   -0.33015E-03 21667   0.855E-02
RMM:   7    -0.665892964620E+03    0.13153E-04   -0.52983E-04 21474   0.269E-02
RMM:   8    -0.665892968109E+03   -0.34895E-05   -0.37632E-04 23133   0.120E-02
RMM:   9    -0.665892970689E+03   -0.25799E-05   -0.38439E-04 23252   0.811E-03
RMM:  10    -0.665892963656E+03    0.70335E-05   -0.31285E-04 22968   0.740E-03
RMM:  11    -0.665892971333E+03   -0.76774E-05   -0.38949E-04 22573   0.728E-03
RMM:  12    -0.665892963691E+03    0.76418E-05   -0.31305E-04 22253   0.727E-03
 Linear response G [H, r] |phi>, progress :
  Direction:   2
       N       E                     dE             d eps       ncg     rms
RMM:   1    -0.695499229252E+03   -0.69550E+03    0.25331E+03 19515   0.136E+02
RMM:   2    -0.690218087920E+03    0.52811E+01   -0.22627E+02 17381   0.290E+01
RMM:   3    -0.691513786457E+03   -0.12957E+01   -0.88107E+00 18049   0.615E+00
RMM:   4    -0.691617849097E+03   -0.10406E+00   -0.56177E-01 20122   0.126E+00
RMM:   5    -0.691617294228E+03    0.55487E-03   -0.32873E-02 19204   0.321E-01
RMM:   6    -0.691617623950E+03   -0.32972E-03   -0.32284E-03 21562   0.842E-02
RMM:   7    -0.691617595503E+03    0.28447E-04   -0.39499E-04 21455   0.268E-02
RMM:   8    -0.691617604687E+03   -0.91845E-05   -0.30095E-04 23138   0.118E-02
RMM:   9    -0.691617624578E+03   -0.19891E-04   -0.48125E-04 23202   0.777E-03
RMM:  10    -0.691617620309E+03    0.42691E-05   -0.43736E-04 22955   0.705E-03
RMM:  11    -0.691617608340E+03    0.11968E-04   -0.31754E-04 22509   0.693E-03
RMM:  12    -0.691617605925E+03    0.24155E-05   -0.29340E-04 22264   0.691E-03
 Linear response G [H, r] |phi>, progress :
  Direction:   3
       N       E                     dE             d eps       ncg     rms
RMM:   1    -0.720341001461E+03   -0.72034E+03    0.28352E+03 19093   0.138E+02
RMM:   2    -0.679551177469E+03    0.40790E+02   -0.28885E+02 16810   0.298E+01
RMM:   3    -0.680204210818E+03   -0.65303E+00   -0.16427E+01 17921   0.730E+00
RMM:   4    -0.680300207084E+03   -0.95996E-01   -0.89400E-01 19621   0.144E+00
RMM:   5    -0.680298635635E+03    0.15714E-02   -0.61083E-02 18836   0.387E-01
RMM:   6    -0.680298995359E+03   -0.35972E-03   -0.44588E-03 20957   0.952E-02
RMM:   7    -0.680298992281E+03    0.30780E-05   -0.39827E-04 21149   0.293E-02
RMM:   8    -0.680298991586E+03    0.69552E-06   -0.48468E-05 22620   0.104E-02
RMM:   9    -0.680298991119E+03    0.46629E-06   -0.16987E-05 22669   0.593E-03
RMM:  10    -0.680298991168E+03   -0.49180E-07   -0.15277E-05 22403   0.497E-03
RMM:  11    -0.680298991495E+03   -0.32672E-06   -0.18370E-05 22084   0.481E-03
RMM:  12    -0.680298991254E+03    0.24088E-06   -0.15944E-05 21758   0.478E-03
 Linear response to external field (no local field effect), progress :
  Direction:   1
       N       E                     dE             d eps       ncg     rms          rms(c)
RMM:   1    -0.109080669956E+02   -0.10908E+02   -0.70489E+01 20725   0.544E+00
RMM:   2    -0.126694673292E+02   -0.17614E+01   -0.72067E-01 15972   0.124E+00
RMM:   3    -0.126919180083E+02   -0.22451E-01   -0.58212E-02 17271   0.284E-01
RMM:   4    -0.126929033248E+02   -0.98532E-03   -0.25636E-03 18753   0.562E-02
RMM:   5    -0.126929200472E+02   -0.16722E-04   -0.88613E-05 18277   0.115E-02
RMM:   6    -0.126929207339E+02   -0.68678E-06   -0.42572E-06 18288   0.255E-03
RMM:   7    -0.126929207544E+02   -0.20470E-07   -0.28766E-07 17678   0.686E-04
RMM:   8    -0.126929207550E+02   -0.59977E-09   -0.42274E-08 16601   0.199E-04
 Linear response to external field (no local field effect), progress :
  Direction:   2
       N       E                     dE             d eps       ncg     rms          rms(c)
RMM:   1    -0.107006599040E+02   -0.10701E+02   -0.67363E+01 20412   0.550E+00
RMM:   2    -0.118899571467E+02   -0.11893E+01   -0.61534E-01 15996   0.122E+00
RMM:   3    -0.119089396342E+02   -0.18982E-01   -0.47192E-02 17217   0.277E-01
RMM:   4    -0.119095815992E+02   -0.64197E-03   -0.20986E-03 18693   0.540E-02
RMM:   5    -0.119095951360E+02   -0.13537E-04   -0.81663E-05 18062   0.118E-02
RMM:   6    -0.119095956852E+02   -0.54917E-06   -0.38400E-06 18091   0.256E-03
RMM:   7    -0.119095957068E+02   -0.21621E-07   -0.29828E-07 17441   0.689E-04
RMM:   8    -0.119095957073E+02   -0.53923E-09   -0.58831E-08 16556   0.202E-04
 Linear response to external field (no local field effect), progress :
  Direction:   3
       N       E                     dE             d eps       ncg     rms          rms(c)
RMM:   1    -0.670261104263E+01   -0.67026E+01   -0.33842E+01 20171   0.502E+00
RMM:   2    -0.722894797759E+01   -0.52634E+00   -0.28846E-01 15136   0.100E+00
RMM:   3    -0.723667155082E+01   -0.77236E-02   -0.26453E-02 16609   0.235E-01
RMM:   4    -0.723696472414E+01   -0.29317E-03   -0.10116E-03 18088   0.451E-02
RMM:   5    -0.723697354496E+01   -0.88208E-05   -0.52610E-05 17357   0.101E-02
RMM:   6    -0.723697380837E+01   -0.26340E-06   -0.23319E-06 17583   0.217E-03
RMM:   7    -0.723697382206E+01   -0.13691E-07   -0.21883E-07 16664   0.589E-04
RMM:   8    -0.723697382288E+01   -0.81652E-09   -0.79915E-08 15321   0.196E-04
 Linear response to external field, progress :
  Direction:   1
       N       E                     dE             d eps       ncg     rms          rms(c)
RMM:   1    -0.108038096143E+02   -0.10804E+02   -0.68921E+01 49815   0.543E+00
RMM:   2    -0.122800191887E+02   -0.14762E+01   -0.66452E-01 38922   0.122E+00    0.625E+00
RMM:   3    -0.118814793715E+02    0.39854E+00   -0.47962E-01 37494   0.164E+00    0.343E+00
RMM:   4    -0.121222475384E+02   -0.24077E+00   -0.36582E-01 35868   0.154E+00    0.911E-01
RMM:   5    -0.122190180482E+02   -0.96771E-01   -0.13595E-02 37128   0.318E-01    0.833E-02
RMM:   6    -0.122277762959E+02   -0.87582E-02   -0.17009E-03 40806   0.628E-02    0.407E-02
RMM:   7    -0.122303688155E+02   -0.25925E-02    0.81625E-04 38855   0.256E-02    0.118E-02
RMM:   8    -0.122314895439E+02   -0.11207E-02   -0.67972E-04 42208   0.594E-03    0.582E-03
RMM:   9    -0.122320420931E+02   -0.55255E-03    0.27929E-04 38375   0.318E-03    0.144E-03
RMM:  10    -0.122322075541E+02   -0.16546E-03   -0.73076E-05 40387   0.943E-04    0.553E-04
RMM:  11    -0.122322370211E+02   -0.29467E-04   -0.23875E-05 38074   0.448E-04    0.178E-04
RMM:  12    -0.122322448836E+02   -0.78625E-05   -0.47592E-06 37304   0.208E-04    0.671E-05
RMM:  13    -0.122322447284E+02    0.15523E-06   -0.17397E-06 35620   0.965E-05    0.273E-05
RMM:  14    -0.122322447690E+02   -0.40611E-07   -0.21891E-06 24424   0.779E-05    0.864E-06
 Linear response to external field, progress :
  Direction:   2
       N       E                     dE             d eps       ncg     rms          rms(c)
RMM:   1    -0.108170410749E+02   -0.10817E+02   -0.69053E+01 50137   0.542E+00
RMM:   2    -0.122800091493E+02   -0.14630E+01   -0.66908E-01 39089   0.122E+00    0.625E+00
RMM:   3    -0.118825835136E+02    0.39743E+00   -0.47922E-01 37726   0.164E+00    0.343E+00
RMM:   4    -0.121236509157E+02   -0.24107E+00   -0.37539E-01 35879   0.153E+00    0.909E-01
RMM:   5    -0.122178878935E+02   -0.94237E-01   -0.98399E-03 37304   0.317E-01    0.937E-02
RMM:   6    -0.122278803857E+02   -0.99925E-02   -0.70128E-03 41176   0.643E-02    0.552E-02
RMM:   7    -0.122286660416E+02   -0.78566E-03    0.12819E-03 42489   0.181E-02    0.282E-02
RMM:   8    -0.122311388929E+02   -0.24729E-02    0.11429E-04 35730   0.147E-02    0.723E-03
RMM:   9    -0.122318960969E+02   -0.75720E-03    0.75915E-05 38609   0.383E-03    0.220E-03
RMM:  10    -0.122321914181E+02   -0.29532E-03   -0.74269E-05 38928   0.149E-03    0.726E-04
RMM:  11    -0.122322023606E+02   -0.10942E-04    0.46311E-05 42055   0.389E-04    0.374E-04
RMM:  12    -0.122322355427E+02   -0.33182E-04   -0.32082E-05 35311   0.266E-04    0.104E-04
RMM:  13    -0.122322374267E+02   -0.18839E-05   -0.17913E-06 33553   0.133E-04    0.448E-05
RMM:  14    -0.122322371479E+02    0.27873E-06   -0.65902E-07 30251   0.823E-05    0.176E-05
RMM:  15    -0.122322367571E+02    0.39080E-06    0.84242E-08 22755   0.760E-05    0.614E-06
 Linear response to external field, progress :
  Direction:   3
       N       E                     dE             d eps       ncg     rms          rms(c)
RMM:   1    -0.670261104263E+01   -0.67026E+01   -0.33842E+01 20171   0.502E+00
RMM:   2    -0.722894797759E+01   -0.52634E+00   -0.28846E-01 15136   0.100E+00    0.580E+00
RMM:   3    -0.330404007880E+01    0.39249E+01   -0.94502E+00 13969   0.354E+00    0.186E+00
RMM:   4    -0.292841646802E+01    0.37562E+00   -0.33348E+00 14746   0.932E-01    0.103E+00
RMM:   5    -0.274683963012E+01    0.18158E+00   -0.49518E+00 14304   0.770E-01    0.434E-01
RMM:   6    -0.256041656267E+01    0.18642E+00   -0.39420E+00 15306   0.272E-01    0.316E-01
RMM:   7    -0.248753619266E+01    0.72880E-01   -0.43419E+00 14668   0.259E-01    0.249E-01
RMM:   8    -0.236867620923E+01    0.11886E+00   -0.34683E+00 14537   0.196E-01    0.121E-01
RMM:   9    -0.226272479555E+01    0.10595E+00   -0.25512E+00 14282   0.141E-01    0.521E-02
RMM:  10    -0.215036186307E+01    0.11236E+00   -0.14344E+00 15120   0.479E-02    0.453E-02
RMM:  11    -0.207508052369E+01    0.75281E-01   -0.68174E-01 13885   0.240E-02    0.235E-02
RMM:  12    -0.204082516080E+01    0.34255E-01   -0.33794E-01 12898   0.225E-02    0.125E-02
RMM:  13    -0.202425798217E+01    0.16567E-01   -0.16441E-01 13133   0.170E-02    0.786E-03
RMM:  14    -0.201600911560E+01    0.82489E-02   -0.77295E-02 13530   0.860E-03    0.442E-03
RMM:  15    -0.201203457407E+01    0.39745E-02   -0.34567E-02 13263   0.652E-03    0.333E-03
RMM:  16    -0.201036410071E+01    0.16705E-02   -0.18035E-02 13499   0.405E-03    0.165E-03
RMM:  17    -0.200936866148E+01    0.99544E-03   -0.78479E-03 12871   0.572E-03    0.781E-04
RMM:  18    -0.200887815407E+01    0.49051E-03   -0.31789E-03 13785   0.168E-03    0.463E-04
RMM:  19    -0.200859085241E+01    0.28730E-03   -0.44680E-04 13808   0.854E-04    0.134E-04
RMM:  20    -0.200850270953E+01    0.88143E-04    0.34672E-04 14331   0.270E-04    0.609E-05
RMM:  21    -0.200849824774E+01    0.44618E-05    0.37688E-04 13879   0.129E-04    0.219E-05
RMM:  22    -0.200850648467E+01   -0.82369E-05    0.28852E-04 11784   0.782E-05    0.919E-06
