 vasp.5.4.1 24Jun15 (build Apr 13 2016 13:07:19) complex                        
  
 executed on           IFC91_ompi date 2019.09.13  23:10:34
 running on   28 total cores
 distrk:  each k-point on   28 cores,    1 groups
 distr:  one band on NCORES_PER_BAND=   1 cores,   28 groups


--------------------------------------------------------------------------------------------------------


 INCAR:
 POTCAR:    PAW_PBE W_sv_GW 23Mar2010             
 POTCAR:    PAW_PBE S_GW 19Mar2012                

 ----------------------------------------------------------------------------- 
|                                                                             |
|           W    W    AA    RRRRR   N    N  II  N    N   GGGG   !!!           |
|           W    W   A  A   R    R  NN   N  II  NN   N  G    G  !!!           |
|           W    W  A    A  R    R  N N  N  II  N N  N  G       !!!           |
|           W WW W  AAAAAA  RRRRR   N  N N  II  N  N N  G  GGG   !            |
|           WW  WW  A    A  R   R   N   NN  II  N   NN  G    G                |
|           W    W  A    A  R    R  N    N  II  N    N   GGGG   !!!           |
|                                                                             |
|      For optimal performance we recommend to set                            |
|        NCORE= 4 - approx SQRT( number of cores)                             |
|      NCORE specifies how many cores store one orbital (NPAR=cpu/NCORE).     |
|      This setting can  greatly improve the performance of VASP for DFT.     |
|      The default, NPAR=number of cores might be grossly inefficient         |
|      on modern multi-core architectures or massively parallel machines.     |
|      Do your own testing !!!!                                               |
|      Unfortunately you need to use the default for GW and RPA calculations. |
|      (for HF NCORE is supported but not extensively tested yet)             |
|                                                                             |
 ----------------------------------------------------------------------------- 

 POTCAR:    PAW_PBE W_sv_GW 23Mar2010             
   VRHFIN =W: 5p6s5d                                                            
   LEXCH  = PE                                                                  
   EATOM  =  1863.8917 eV,  136.9922 Ry                                         
                                                                                
   TITEL  = PAW_PBE W_sv_GW 23Mar2010                                           
   LULTRA =        F    use ultrasoft PP ?                                      
   IUNSCR =        1    unscreen: 0-lin 1-nonlin 2-no                           
   RPACOR =    1.500    partial core radius                                     
   POMASS =  183.850; ZVAL   =   14.000    mass and valenz                      
   RCORE  =    2.300    outmost cutoff radius                                   
   RWIGS  =    2.600; RWIGS  =    1.376    wigner-seitz radius (au A)           
   ENMAX  =  317.132; ENMIN  =  237.849 eV                                      
   RCLOC  =    1.609    cutoff for local pot                                    
   LCOR   =        T    correct aug charges                                     
   LPAW   =        T    paw PP                                                  
   EAUG   =  807.757                                                            
   DEXC   =    0.000                                                            
   RMAX   =    2.349    core radius for proj-oper                               
   RAUG   =    1.300    factor for augmentation sphere                          
   RDEP   =    2.382    radius for radial grids                                 
   RDEPT  =    1.832    core radius for aug-charge                              
                                                                                
   Atomic configuration                                                         
   14 entries                                                                   
     n  l   j            E        occ.                                          
     1  0  0.50    -69464.1497   2.0000                                         
     2  0  0.50    -11984.7400   2.0000                                         
     2  1  1.50    -10478.3405   6.0000                                         
     3  0  0.50     -2757.5605   2.0000                                         
     3  1  1.50     -2311.6706   6.0000                                         
     3  2  2.50     -1799.5973  10.0000                                         
     4  0  0.50      -566.1609   2.0000                                         
     4  1  1.50      -419.9482   6.0000                                         
     4  2  2.50      -234.8191  10.0000                                         
     4  3  3.50       -29.7363  14.0000                                         
     5  0  0.50       -75.5905   2.0000                                         
     5  1  1.50       -39.9756   6.0000                                         
     5  2  2.50        -2.4479   6.0000                                         
     5  3  2.50        -1.3606   0.0000                                         
   Description                                                                  
     l       E           TYP  RCUT    TYP  RCUT                                 
     0    -75.5905419     23  1.500                                             
     0    -76.9511245     23  1.500                                             
     0    108.8466080     23  1.500                                             
     1    -39.9756040     23  1.800                                             
     1     68.0291300     23  1.800                                             
     2     -2.4478587     23  2.150                                             
     2     -0.0030619     23  2.150                                             
     3      4.0817478     23  2.300                                             
  local pseudopotential read in
  partial core-charges read in
  partial kinetic energy density read in
  kinetic energy density of atom read in
  atomic valenz-charges read in
  non local Contribution for L=           0  read in
    real space projection operators read in
  non local Contribution for L=           0  read in
    real space projection operators read in
  non local Contribution for L=           0  read in
    real space projection operators read in
  non local Contribution for L=           1  read in
    real space projection operators read in
  non local Contribution for L=           1  read in
    real space projection operators read in
  non local Contribution for L=           2  read in
    real space projection operators read in
  non local Contribution for L=           2  read in
    real space projection operators read in
  non local Contribution for L=           3  read in
    real space projection operators read in
    PAW grid and wavefunctions read in
 
   number of l-projection  operators is LMAX  =           8
   number of lm-projection operators is LMMAX =          26
 
 POTCAR:    PAW_PBE S_GW 19Mar2012                
   VRHFIN =S : s2p4                                                             
   LEXCH  = PE                                                                  
   EATOM  =   276.8230 eV,   20.3459 Ry                                         
                                                                                
   TITEL  = PAW_PBE S_GW 19Mar2012                                              
   LULTRA =        F    use ultrasoft PP ?                                      
   IUNSCR =        1    unscreen: 0-lin 1-nonlin 2-no                           
   RPACOR =    1.400    partial core radius                                     
   POMASS =   32.066; ZVAL   =    6.000    mass and valenz                      
   RCORE  =    1.900    outmost cutoff radius                                   
   RWIGS  =    1.900; RWIGS  =    1.005    wigner-seitz radius (au A)           
   ENMAX  =  258.689; ENMIN  =  194.016 eV                                      
   ICORE  =        3    local potential                                         
   LCOR   =        T    correct aug charges                                     
   LPAW   =        T    paw PP                                                  
   EAUG   =  488.319                                                            
   DEXC   =    0.000                                                            
   RMAX   =    1.942    core radius for proj-oper                               
   RAUG   =    1.300    factor for augmentation sphere                          
   RDEP   =    1.954    radius for radial grids                                 
   RDEPT  =    1.900    core radius for aug-charge                              
                                                                                
   Atomic configuration                                                         
    7 entries                                                                   
     n  l   j            E        occ.                                          
     1  0  0.50     -2405.8406   2.0000                                         
     2  0  0.50      -211.7007   2.0000                                         
     2  1  1.50      -156.4958   6.0000                                         
     3  0  0.50       -17.2562   2.0000                                         
     3  1  0.50        -7.0085   4.0000                                         
     3  2  1.50        -8.1635   0.0000                                         
     4  3  2.50        -1.3606   0.0000                                         
   Description                                                                  
     l       E           TYP  RCUT    TYP  RCUT                                 
     0    -17.2561639     23  1.700                                             
     0     88.4378690     23  1.900                                             
     1     -7.0085399     23  1.900                                             
     1     88.4378690     23  1.900                                             
     2    -10.8846608     23  1.900                                             
     2     54.4233040     23  1.900                                             
     3     27.2116520     23  1.800                                             
  local pseudopotential read in
  partial core-charges read in
  partial kinetic energy density read in
  kinetic energy density of atom read in
  atomic valenz-charges read in
  non local Contribution for L=           0  read in
    real space projection operators read in
  non local Contribution for L=           0  read in
    real space projection operators read in
  non local Contribution for L=           1  read in
    real space projection operators read in
  non local Contribution for L=           1  read in
    real space projection operators read in
  non local Contribution for L=           2  read in
    real space projection operators read in
  non local Contribution for L=           2  read in
    real space projection operators read in
    PAW grid and wavefunctions read in
 
   number of l-projection  operators is LMAX  =           6
   number of lm-projection operators is LMMAX =          18
 

 ----------------------------------------------------------------------------- 
|                                                                             |
|  ADVICE TO THIS USER RUNNING 'VASP/VAMP'   (HEAR YOUR MASTER'S VOICE ...):  |
|                                                                             |
|      You have a (more or less) 'large supercell' and for larger cells       |
|      it might be more efficient to use real space projection opertators     |
|      So try LREAL= Auto  in the INCAR   file.                               |
|      Mind: At the moment your POTCAR file does not contain real space       |
|       projectors, and has to be modified,  BUT if you                       |
|      want to do an extremely  accurate calculation you might also keep the  |
|      reciprocal projection scheme          (i.e. LREAL=.FALSE.)             |
|                                                                             |
 ----------------------------------------------------------------------------- 

  PAW_PBE W_sv_GW 23Mar2010             :
 energy of atom  1       EATOM=-1863.8917
 kinetic energy error for atom=    0.2291 (will be added to EATOM!!)
  PAW_PBE S_GW 19Mar2012                :
 energy of atom  2       EATOM= -276.8230
 kinetic energy error for atom=    0.0074 (will be added to EATOM!!)
 
 
 POSCAR:  W  S                                   
  positions in cartesian coordinates
  No initial velocities read in
 exchange correlation table for  LEXCH =        8
   RHO(1)=    0.500       N(1)  =     2000
   RHO(2)=  100.500       N(2)  =     4000
 


--------------------------------------------------------------------------------------------------------


 ion  position               nearest neighbor table
   1  0.167  0.333  0.193-   7 2.42   7 2.42   7 2.42   8 2.42   8 2.42   8 2.42
   2  0.833  0.667  0.316-   9 2.42  10 2.42   9 2.42  10 2.42   9 2.42  10 2.42
   3  0.167  0.333  0.438-  12 2.42  12 2.42  12 2.42  11 2.42  11 2.42  11 2.42
   4  0.833  0.667  0.562-  13 2.42  13 2.42  13 2.42  14 2.42  14 2.42  14 2.42
   5  0.167  0.333  0.684-  15 2.42  16 2.42  15 2.42  16 2.42  15 2.42  16 2.42
   6  0.833  0.667  0.807-  18 2.42  18 2.42  18 2.42  17 2.42  17 2.42  17 2.42
   7  0.833  0.667  0.224-   1 2.42   1 2.42   1 2.42
   8  0.833  0.667  0.161-   1 2.42   1 2.42   1 2.42
   9  0.167  0.333  0.347-   2 2.42   2 2.42   2 2.42
  10  0.167  0.333  0.284-   2 2.42   2 2.42   2 2.42
  11  0.833  0.667  0.470-   3 2.42   3 2.42   3 2.42
  12  0.833  0.667  0.407-   3 2.42   3 2.42   3 2.42
  13  0.167  0.333  0.593-   4 2.42   4 2.42   4 2.42
  14  0.167  0.333  0.530-   4 2.42   4 2.42   4 2.42
  15  0.833  0.667  0.716-   5 2.42   5 2.42   5 2.42
  16  0.833  0.667  0.653-   5 2.42   5 2.42   5 2.42
  17  0.167  0.333  0.839-   6 2.42   6 2.42   6 2.42
  18  0.167  0.333  0.776-   6 2.42   6 2.42   6 2.42
 
  LATTYP: Found a hexagonal cell.
 ALAT       =     3.1859459497
 C/A-ratio  =    15.6939260082
  
  Lattice vectors:
  
 A1 = (   3.1859459497,   0.0000000000,   0.0000000000)
 A2 = (  -1.5929729748,   2.7591101275,   0.0000000000)
 A3 = (   0.0000000000,   0.0000000000,  50.0000000000)


Analysis of symmetry for initial positions (statically):
=====================================================================
 Subroutine PRICEL returns:
 Original cell was already a primitive cell.
 

 Routine SETGRP: Setting up the symmetry group for a 
 hexagonal supercell.


 Subroutine GETGRP returns: Found 12 space group operations
 (whereof  4 operations were pure point group operations)
 out of a pool of 24 trial point group operations.


The static configuration has the point symmetry C_2h.
 The point group associated with its full space group is D_3d.


Analysis of symmetry for dynamics (positions and initial velocities):
=====================================================================
 Subroutine PRICEL returns:
 Original cell was already a primitive cell.
 

 Routine SETGRP: Setting up the symmetry group for a 
 hexagonal supercell.


 Subroutine GETGRP returns: Found 12 space group operations
 (whereof  4 operations were pure point group operations)
 out of a pool of 24 trial point group operations.


The dynamic configuration has the point symmetry C_2h.
 The point group associated with its full space group is D_3d.


 Subroutine INISYM returns: Found 12 space group operations
 (whereof  4 operations are pure point group operations),
 and found     1 'primitive' translations

 
 
 KPOINTS: KPOINTS created by Atomic Simulation Env

Automatic generation of k-mesh.
Space group operators:
 irot       det(A)        alpha          n_x          n_y          n_z        tau_x        tau_y        tau_z
    1     1.000000     0.000000     1.000000     0.000000     0.000000     0.000000     0.000000     0.000000
    2    -1.000000     0.000000     1.000000     0.000000     0.000000     0.000000     0.000000     0.000000
    3     1.000000   180.000000     1.000000     0.000000     0.000000     0.000000     0.000000     0.000000
    4    -1.000000   180.000000     1.000000     0.000000     0.000000     0.000000     0.000000     0.000000
    5     1.000000   120.000000     0.000000     0.000000    -1.000000     0.500000     0.500000     0.000000
    6    -1.000000   120.000000     0.000000     0.000000    -1.000000     0.500000     0.500000     0.000000
    7     1.000000   120.000000     0.000000     0.000000     1.000000     0.000000     0.500000     0.000000
    8    -1.000000   120.000000     0.000000     0.000000     1.000000     0.000000     0.500000     0.000000
    9     1.000000   180.000000     0.500000    -0.866025     0.000000     0.000000     0.500000     0.000000
   10    -1.000000   180.000000     0.500000    -0.866025     0.000000     0.000000     0.500000     0.000000
   11     1.000000   180.000000    -0.500000    -0.866025     0.000000     0.500000     0.500000     0.000000
   12    -1.000000   180.000000    -0.500000    -0.866025     0.000000     0.500000     0.500000     0.000000
 
 Subroutine IBZKPT returns following result:
 ===========================================
 
 Found     37 irreducible k-points:
 
 Following reciprocal coordinates:
            Coordinates               Weight
  0.000000  0.000000  0.000000      1.000000
  0.055556  0.000000  0.000000      6.000000
  0.111111  0.000000  0.000000      6.000000
  0.166667  0.000000  0.000000      6.000000
  0.222222  0.000000  0.000000      6.000000
  0.277778  0.000000  0.000000      6.000000
  0.333333  0.000000  0.000000      6.000000
  0.388889  0.000000  0.000000      6.000000
  0.444444  0.000000  0.000000      6.000000
  0.500000  0.000000  0.000000      3.000000
  0.055556  0.055556  0.000000      6.000000
  0.111111  0.055556  0.000000     12.000000
  0.166667  0.055556  0.000000     12.000000
  0.222222  0.055556  0.000000     12.000000
  0.277778  0.055556  0.000000     12.000000
  0.333333  0.055556  0.000000     12.000000
  0.388889  0.055556  0.000000     12.000000
  0.444444  0.055556  0.000000     12.000000
  0.111111  0.111111  0.000000      6.000000
  0.166667  0.111111  0.000000     12.000000
  0.222222  0.111111  0.000000     12.000000
  0.277778  0.111111  0.000000     12.000000
  0.333333  0.111111  0.000000     12.000000
  0.388889  0.111111  0.000000     12.000000
  0.444444  0.111111  0.000000      6.000000
  0.166667  0.166667  0.000000      6.000000
  0.222222  0.166667  0.000000     12.000000
  0.277778  0.166667  0.000000     12.000000
  0.333333  0.166667  0.000000     12.000000
  0.388889  0.166667  0.000000     12.000000
  0.222222  0.222222  0.000000      6.000000
  0.277778  0.222222  0.000000     12.000000
  0.333333  0.222222  0.000000     12.000000
  0.388889  0.222222  0.000000      6.000000
  0.277778  0.277778  0.000000      6.000000
  0.333333  0.277778  0.000000     12.000000
  0.333333  0.333333  0.000000      2.000000
 
 Following cartesian coordinates:
            Coordinates               Weight
  0.000000  0.000000  0.000000      1.000000
  0.017438  0.010068  0.000000      6.000000
  0.034875  0.020135  0.000000      6.000000
  0.052313  0.030203  0.000000      6.000000
  0.069751  0.040271  0.000000      6.000000
  0.087188  0.050338  0.000000      6.000000
  0.104626  0.060406  0.000000      6.000000
  0.122064  0.070474  0.000000      6.000000
  0.139502  0.080541  0.000000      6.000000
  0.156939  0.090609  0.000000      3.000000
  0.017438  0.030203  0.000000      6.000000
  0.034875  0.040271  0.000000     12.000000
  0.052313  0.050338  0.000000     12.000000
  0.069751  0.060406  0.000000     12.000000
  0.087188  0.070474  0.000000     12.000000
  0.104626  0.080541  0.000000     12.000000
  0.122064  0.090609  0.000000     12.000000
  0.139502  0.100677  0.000000     12.000000
  0.034875  0.060406  0.000000      6.000000
  0.052313  0.070474  0.000000     12.000000
  0.069751  0.080541  0.000000     12.000000
  0.087188  0.090609  0.000000     12.000000
  0.104626  0.100677  0.000000     12.000000
  0.122064  0.110744  0.000000     12.000000
  0.139502  0.120812  0.000000      6.000000
  0.052313  0.090609  0.000000      6.000000
  0.069751  0.100677  0.000000     12.000000
  0.087188  0.110744  0.000000     12.000000
  0.104626  0.120812  0.000000     12.000000
  0.122064  0.130880  0.000000     12.000000
  0.069751  0.120812  0.000000      6.000000
  0.087188  0.130880  0.000000     12.000000
  0.104626  0.140947  0.000000     12.000000
  0.122064  0.151015  0.000000      6.000000
  0.087188  0.151015  0.000000      6.000000
  0.104626  0.161083  0.000000     12.000000
  0.104626  0.181218  0.000000      2.000000
 
 TETIRR: Found    169 inequivalent tetrahedra from     1944
 
 Subroutine IBZKPT_HF returns following result:
 ==============================================
 
 Found    324 k-points in 1st BZ
 the following    324 k-points will be used (e.g. in the exchange kernel)
 Following reciprocal coordinates:   # in IRBZ
  0.000000  0.000000  0.000000    0.00308642   1 t-inv F
  0.055556  0.000000  0.000000    0.00308642   2 t-inv F
  0.111111  0.000000  0.000000    0.00308642   3 t-inv F
  0.166667  0.000000  0.000000    0.00308642   4 t-inv F
  0.222222  0.000000  0.000000    0.00308642   5 t-inv F
  0.277778  0.000000  0.000000    0.00308642   6 t-inv F
  0.333333  0.000000  0.000000    0.00308642   7 t-inv F
  0.388889  0.000000  0.000000    0.00308642   8 t-inv F
  0.444444  0.000000  0.000000    0.00308642   9 t-inv F
  0.500000  0.000000  0.000000    0.00308642  10 t-inv F
  0.055556  0.055556  0.000000    0.00308642  11 t-inv F
  0.111111  0.055556  0.000000    0.00308642  12 t-inv F
  0.166667  0.055556  0.000000    0.00308642  13 t-inv F
  0.222222  0.055556  0.000000    0.00308642  14 t-inv F
  0.277778  0.055556  0.000000    0.00308642  15 t-inv F
  0.333333  0.055556  0.000000    0.00308642  16 t-inv F
  0.388889  0.055556  0.000000    0.00308642  17 t-inv F
  0.444444  0.055556  0.000000    0.00308642  18 t-inv F
  0.111111  0.111111  0.000000    0.00308642  19 t-inv F
  0.166667  0.111111  0.000000    0.00308642  20 t-inv F
  0.222222  0.111111  0.000000    0.00308642  21 t-inv F
  0.277778  0.111111  0.000000    0.00308642  22 t-inv F
  0.333333  0.111111  0.000000    0.00308642  23 t-inv F
  0.388889  0.111111  0.000000    0.00308642  24 t-inv F
  0.444444  0.111111  0.000000    0.00308642  25 t-inv F
  0.166667  0.166667  0.000000    0.00308642  26 t-inv F
  0.222222  0.166667  0.000000    0.00308642  27 t-inv F
  0.277778  0.166667  0.000000    0.00308642  28 t-inv F
  0.333333  0.166667  0.000000    0.00308642  29 t-inv F
  0.388889  0.166667  0.000000    0.00308642  30 t-inv F
  0.222222  0.222222  0.000000    0.00308642  31 t-inv F
  0.277778  0.222222  0.000000    0.00308642  32 t-inv F
  0.333333  0.222222  0.000000    0.00308642  33 t-inv F
  0.388889  0.222222  0.000000    0.00308642  34 t-inv F
  0.277778  0.277778  0.000000    0.00308642  35 t-inv F
  0.333333  0.277778  0.000000    0.00308642  36 t-inv F
  0.333333  0.333333  0.000000    0.00308642  37 t-inv F
 -0.055556 -0.000000 -0.000000    0.00308642   2 t-inv F
  0.055556 -0.055556 -0.000000    0.00308642   2 t-inv F
 -0.055556  0.055556  0.000000    0.00308642   2 t-inv F
  0.000000 -0.055556  0.000000    0.00308642   2 t-inv F
 -0.000000  0.055556 -0.000000    0.00308642   2 t-inv F
 -0.111111 -0.000000 -0.000000    0.00308642   3 t-inv F
  0.111111 -0.111111 -0.000000    0.00308642   3 t-inv F
 -0.111111  0.111111  0.000000    0.00308642   3 t-inv F
  0.000000 -0.111111  0.000000    0.00308642   3 t-inv F
 -0.000000  0.111111 -0.000000    0.00308642   3 t-inv F
 -0.166667 -0.000000 -0.000000    0.00308642   4 t-inv F
  0.166667 -0.166667 -0.000000    0.00308642   4 t-inv F
 -0.166667  0.166667  0.000000    0.00308642   4 t-inv F
  0.000000 -0.166667  0.000000    0.00308642   4 t-inv F
 -0.000000  0.166667 -0.000000    0.00308642   4 t-inv F
 -0.222222 -0.000000 -0.000000    0.00308642   5 t-inv F
  0.222222 -0.222222 -0.000000    0.00308642   5 t-inv F
 -0.222222  0.222222  0.000000    0.00308642   5 t-inv F
  0.000000 -0.222222  0.000000    0.00308642   5 t-inv F
 -0.000000  0.222222 -0.000000    0.00308642   5 t-inv F
 -0.277778 -0.000000 -0.000000    0.00308642   6 t-inv F
  0.277778 -0.277778 -0.000000    0.00308642   6 t-inv F
 -0.277778  0.277778  0.000000    0.00308642   6 t-inv F
  0.000000 -0.277778  0.000000    0.00308642   6 t-inv F
 -0.000000  0.277778 -0.000000    0.00308642   6 t-inv F
 -0.333333 -0.000000 -0.000000    0.00308642   7 t-inv F
  0.333333 -0.333333 -0.000000    0.00308642   7 t-inv F
 -0.333333  0.333333  0.000000    0.00308642   7 t-inv F
  0.000000 -0.333333  0.000000    0.00308642   7 t-inv F
 -0.000000  0.333333 -0.000000    0.00308642   7 t-inv F
 -0.388889 -0.000000 -0.000000    0.00308642   8 t-inv F
  0.388889 -0.388889 -0.000000    0.00308642   8 t-inv F
 -0.388889  0.388889  0.000000    0.00308642   8 t-inv F
  0.000000 -0.388889  0.000000    0.00308642   8 t-inv F
 -0.000000  0.388889 -0.000000    0.00308642   8 t-inv F
 -0.444444 -0.000000 -0.000000    0.00308642   9 t-inv F
  0.444444 -0.444444 -0.000000    0.00308642   9 t-inv F
 -0.444444  0.444444  0.000000    0.00308642   9 t-inv F
  0.000000 -0.444444  0.000000    0.00308642   9 t-inv F
 -0.000000  0.444444 -0.000000    0.00308642   9 t-inv F
  0.500000 -0.500000 -0.000000    0.00308642  10 t-inv F
  0.000000 -0.500000  0.000000    0.00308642  10 t-inv F
 -0.055556 -0.055556 -0.000000    0.00308642  11 t-inv F
  0.055556 -0.111111 -0.000000    0.00308642  11 t-inv F
 -0.055556  0.111111  0.000000    0.00308642  11 t-inv F
 -0.111111  0.055556  0.000000    0.00308642  11 t-inv F
  0.111111 -0.055556 -0.000000    0.00308642  11 t-inv F
 -0.111111 -0.055556 -0.000000    0.00308642  12 t-inv F
  0.111111 -0.166667 -0.000000    0.00308642  12 t-inv F
 -0.111111  0.166667  0.000000    0.00308642  12 t-inv F
 -0.166667  0.111111  0.000000    0.00308642  12 t-inv F
  0.166667 -0.111111 -0.000000    0.00308642  12 t-inv F
  0.055556 -0.166667  0.000000    0.00308642  12 t-inv F
 -0.055556  0.166667 -0.000000    0.00308642  12 t-inv F
 -0.166667  0.055556 -0.000000    0.00308642  12 t-inv F
  0.166667 -0.055556  0.000000    0.00308642  12 t-inv F
  0.055556  0.111111 -0.000000    0.00308642  12 t-inv F
 -0.055556 -0.111111  0.000000    0.00308642  12 t-inv F
 -0.166667 -0.055556 -0.000000    0.00308642  13 t-inv F
  0.166667 -0.222222 -0.000000    0.00308642  13 t-inv F
 -0.166667  0.222222  0.000000    0.00308642  13 t-inv F
 -0.222222  0.166667  0.000000    0.00308642  13 t-inv F
  0.222222 -0.166667 -0.000000    0.00308642  13 t-inv F
  0.055556 -0.222222  0.000000    0.00308642  13 t-inv F
 -0.055556  0.222222 -0.000000    0.00308642  13 t-inv F
 -0.222222  0.055556 -0.000000    0.00308642  13 t-inv F
  0.222222 -0.055556  0.000000    0.00308642  13 t-inv F
  0.055556  0.166667 -0.000000    0.00308642  13 t-inv F
 -0.055556 -0.166667  0.000000    0.00308642  13 t-inv F
 -0.222222 -0.055556 -0.000000    0.00308642  14 t-inv F
  0.222222 -0.277778 -0.000000    0.00308642  14 t-inv F
 -0.222222  0.277778  0.000000    0.00308642  14 t-inv F
 -0.277778  0.222222  0.000000    0.00308642  14 t-inv F
  0.277778 -0.222222 -0.000000    0.00308642  14 t-inv F
  0.055556 -0.277778  0.000000    0.00308642  14 t-inv F
 -0.055556  0.277778 -0.000000    0.00308642  14 t-inv F
 -0.277778  0.055556 -0.000000    0.00308642  14 t-inv F
  0.277778 -0.055556  0.000000    0.00308642  14 t-inv F
  0.055556  0.222222 -0.000000    0.00308642  14 t-inv F
 -0.055556 -0.222222  0.000000    0.00308642  14 t-inv F
 -0.277778 -0.055556 -0.000000    0.00308642  15 t-inv F
  0.277778 -0.333333 -0.000000    0.00308642  15 t-inv F
 -0.277778  0.333333  0.000000    0.00308642  15 t-inv F
 -0.333333  0.277778  0.000000    0.00308642  15 t-inv F
  0.333333 -0.277778 -0.000000    0.00308642  15 t-inv F
  0.055556 -0.333333  0.000000    0.00308642  15 t-inv F
 -0.055556  0.333333 -0.000000    0.00308642  15 t-inv F
 -0.333333  0.055556 -0.000000    0.00308642  15 t-inv F
  0.333333 -0.055556  0.000000    0.00308642  15 t-inv F
  0.055556  0.277778 -0.000000    0.00308642  15 t-inv F
 -0.055556 -0.277778  0.000000    0.00308642  15 t-inv F
 -0.333333 -0.055556 -0.000000    0.00308642  16 t-inv F
  0.333333 -0.388889 -0.000000    0.00308642  16 t-inv F
 -0.333333  0.388889  0.000000    0.00308642  16 t-inv F
 -0.388889  0.333333  0.000000    0.00308642  16 t-inv F
  0.388889 -0.333333 -0.000000    0.00308642  16 t-inv F
  0.055556 -0.388889  0.000000    0.00308642  16 t-inv F
 -0.055556  0.388889 -0.000000    0.00308642  16 t-inv F
 -0.388889  0.055556 -0.000000    0.00308642  16 t-inv F
  0.388889 -0.055556  0.000000    0.00308642  16 t-inv F
  0.055556  0.333333 -0.000000    0.00308642  16 t-inv F
 -0.055556 -0.333333  0.000000    0.00308642  16 t-inv F
 -0.388889 -0.055556 -0.000000    0.00308642  17 t-inv F
  0.388889 -0.444444 -0.000000    0.00308642  17 t-inv F
 -0.388889  0.444444  0.000000    0.00308642  17 t-inv F
 -0.444444  0.388889  0.000000    0.00308642  17 t-inv F
  0.444444 -0.388889 -0.000000    0.00308642  17 t-inv F
  0.055556 -0.444444  0.000000    0.00308642  17 t-inv F
 -0.055556  0.444444 -0.000000    0.00308642  17 t-inv F
 -0.444444  0.055556 -0.000000    0.00308642  17 t-inv F
  0.444444 -0.055556  0.000000    0.00308642  17 t-inv F
  0.055556  0.388889 -0.000000    0.00308642  17 t-inv F
 -0.055556 -0.388889  0.000000    0.00308642  17 t-inv F
 -0.444444 -0.055556 -0.000000    0.00308642  18 t-inv F
  0.444444 -0.500000 -0.000000    0.00308642  18 t-inv F
 -0.444444  0.500000  0.000000    0.00308642  18 t-inv F
 -0.500000  0.444444  0.000000    0.00308642  18 t-inv F
  0.500000 -0.444444 -0.000000    0.00308642  18 t-inv F
  0.055556 -0.500000  0.000000    0.00308642  18 t-inv F
 -0.055556  0.500000 -0.000000    0.00308642  18 t-inv F
 -0.500000  0.055556 -0.000000    0.00308642  18 t-inv F
  0.500000 -0.055556  0.000000    0.00308642  18 t-inv F
  0.055556  0.444444 -0.000000    0.00308642  18 t-inv F
 -0.055556 -0.444444  0.000000    0.00308642  18 t-inv F
 -0.111111 -0.111111 -0.000000    0.00308642  19 t-inv F
  0.111111 -0.222222 -0.000000    0.00308642  19 t-inv F
 -0.111111  0.222222  0.000000    0.00308642  19 t-inv F
 -0.222222  0.111111  0.000000    0.00308642  19 t-inv F
  0.222222 -0.111111 -0.000000    0.00308642  19 t-inv F
 -0.166667 -0.111111 -0.000000    0.00308642  20 t-inv F
  0.166667 -0.277778 -0.000000    0.00308642  20 t-inv F
 -0.166667  0.277778  0.000000    0.00308642  20 t-inv F
 -0.277778  0.166667  0.000000    0.00308642  20 t-inv F
  0.277778 -0.166667 -0.000000    0.00308642  20 t-inv F
  0.111111 -0.277778  0.000000    0.00308642  20 t-inv F
 -0.111111  0.277778 -0.000000    0.00308642  20 t-inv F
 -0.277778  0.111111 -0.000000    0.00308642  20 t-inv F
  0.277778 -0.111111  0.000000    0.00308642  20 t-inv F
  0.111111  0.166667 -0.000000    0.00308642  20 t-inv F
 -0.111111 -0.166667  0.000000    0.00308642  20 t-inv F
 -0.222222 -0.111111 -0.000000    0.00308642  21 t-inv F
  0.222222 -0.333333 -0.000000    0.00308642  21 t-inv F
 -0.222222  0.333333  0.000000    0.00308642  21 t-inv F
 -0.333333  0.222222  0.000000    0.00308642  21 t-inv F
  0.333333 -0.222222 -0.000000    0.00308642  21 t-inv F
  0.111111 -0.333333  0.000000    0.00308642  21 t-inv F
 -0.111111  0.333333 -0.000000    0.00308642  21 t-inv F
 -0.333333  0.111111 -0.000000    0.00308642  21 t-inv F
  0.333333 -0.111111  0.000000    0.00308642  21 t-inv F
  0.111111  0.222222 -0.000000    0.00308642  21 t-inv F
 -0.111111 -0.222222  0.000000    0.00308642  21 t-inv F
 -0.277778 -0.111111 -0.000000    0.00308642  22 t-inv F
  0.277778 -0.388889 -0.000000    0.00308642  22 t-inv F
 -0.277778  0.388889  0.000000    0.00308642  22 t-inv F
 -0.388889  0.277778  0.000000    0.00308642  22 t-inv F
  0.388889 -0.277778 -0.000000    0.00308642  22 t-inv F
  0.111111 -0.388889  0.000000    0.00308642  22 t-inv F
 -0.111111  0.388889 -0.000000    0.00308642  22 t-inv F
 -0.388889  0.111111 -0.000000    0.00308642  22 t-inv F
  0.388889 -0.111111  0.000000    0.00308642  22 t-inv F
  0.111111  0.277778 -0.000000    0.00308642  22 t-inv F
 -0.111111 -0.277778  0.000000    0.00308642  22 t-inv F
 -0.333333 -0.111111 -0.000000    0.00308642  23 t-inv F
  0.333333 -0.444444 -0.000000    0.00308642  23 t-inv F
 -0.333333  0.444444  0.000000    0.00308642  23 t-inv F
 -0.444444  0.333333  0.000000    0.00308642  23 t-inv F
  0.444444 -0.333333 -0.000000    0.00308642  23 t-inv F
  0.111111 -0.444444  0.000000    0.00308642  23 t-inv F
 -0.111111  0.444444 -0.000000    0.00308642  23 t-inv F
 -0.444444  0.111111 -0.000000    0.00308642  23 t-inv F
  0.444444 -0.111111  0.000000    0.00308642  23 t-inv F
  0.111111  0.333333 -0.000000    0.00308642  23 t-inv F
 -0.111111 -0.333333  0.000000    0.00308642  23 t-inv F
 -0.388889 -0.111111 -0.000000    0.00308642  24 t-inv F
  0.388889 -0.500000 -0.000000    0.00308642  24 t-inv F
 -0.388889  0.500000  0.000000    0.00308642  24 t-inv F
 -0.500000  0.388889  0.000000    0.00308642  24 t-inv F
  0.500000 -0.388889 -0.000000    0.00308642  24 t-inv F
  0.111111 -0.500000  0.000000    0.00308642  24 t-inv F
 -0.111111  0.500000 -0.000000    0.00308642  24 t-inv F
 -0.500000  0.111111 -0.000000    0.00308642  24 t-inv F
  0.500000 -0.111111  0.000000    0.00308642  24 t-inv F
  0.111111  0.388889 -0.000000    0.00308642  24 t-inv F
 -0.111111 -0.388889  0.000000    0.00308642  24 t-inv F
 -0.444444 -0.111111 -0.000000    0.00308642  25 t-inv F
  0.444444 -0.555556 -0.000000    0.00308642  25 t-inv F
 -0.444444  0.555556  0.000000    0.00308642  25 t-inv F
  0.111111 -0.555556  0.000000    0.00308642  25 t-inv F
 -0.111111  0.555556 -0.000000    0.00308642  25 t-inv F
 -0.166667 -0.166667 -0.000000    0.00308642  26 t-inv F
  0.166667 -0.333333 -0.000000    0.00308642  26 t-inv F
 -0.166667  0.333333  0.000000    0.00308642  26 t-inv F
 -0.333333  0.166667  0.000000    0.00308642  26 t-inv F
  0.333333 -0.166667 -0.000000    0.00308642  26 t-inv F
 -0.222222 -0.166667 -0.000000    0.00308642  27 t-inv F
  0.222222 -0.388889 -0.000000    0.00308642  27 t-inv F
 -0.222222  0.388889  0.000000    0.00308642  27 t-inv F
 -0.388889  0.222222  0.000000    0.00308642  27 t-inv F
  0.388889 -0.222222 -0.000000    0.00308642  27 t-inv F
  0.166667 -0.388889  0.000000    0.00308642  27 t-inv F
 -0.166667  0.388889 -0.000000    0.00308642  27 t-inv F
 -0.388889  0.166667 -0.000000    0.00308642  27 t-inv F
  0.388889 -0.166667  0.000000    0.00308642  27 t-inv F
  0.166667  0.222222 -0.000000    0.00308642  27 t-inv F
 -0.166667 -0.222222  0.000000    0.00308642  27 t-inv F
 -0.277778 -0.166667 -0.000000    0.00308642  28 t-inv F
  0.277778 -0.444444 -0.000000    0.00308642  28 t-inv F
 -0.277778  0.444444  0.000000    0.00308642  28 t-inv F
 -0.444444  0.277778  0.000000    0.00308642  28 t-inv F
  0.444444 -0.277778 -0.000000    0.00308642  28 t-inv F
  0.166667 -0.444444  0.000000    0.00308642  28 t-inv F
 -0.166667  0.444444 -0.000000    0.00308642  28 t-inv F
 -0.444444  0.166667 -0.000000    0.00308642  28 t-inv F
  0.444444 -0.166667  0.000000    0.00308642  28 t-inv F
  0.166667  0.277778 -0.000000    0.00308642  28 t-inv F
 -0.166667 -0.277778  0.000000    0.00308642  28 t-inv F
 -0.333333 -0.166667 -0.000000    0.00308642  29 t-inv F
  0.333333 -0.500000 -0.000000    0.00308642  29 t-inv F
 -0.333333  0.500000  0.000000    0.00308642  29 t-inv F
 -0.500000  0.333333  0.000000    0.00308642  29 t-inv F
  0.500000 -0.333333 -0.000000    0.00308642  29 t-inv F
  0.166667 -0.500000  0.000000    0.00308642  29 t-inv F
 -0.166667  0.500000 -0.000000    0.00308642  29 t-inv F
 -0.500000  0.166667 -0.000000    0.00308642  29 t-inv F
  0.500000 -0.166667  0.000000    0.00308642  29 t-inv F
  0.166667  0.333333 -0.000000    0.00308642  29 t-inv F
 -0.166667 -0.333333  0.000000    0.00308642  29 t-inv F
 -0.388889 -0.166667 -0.000000    0.00308642  30 t-inv F
  0.388889 -0.555556 -0.000000    0.00308642  30 t-inv F
 -0.388889  0.555556  0.000000    0.00308642  30 t-inv F
 -0.555556  0.388889  0.000000    0.00308642  30 t-inv F
  0.555556 -0.388889 -0.000000    0.00308642  30 t-inv F
  0.166667 -0.555556  0.000000    0.00308642  30 t-inv F
 -0.166667  0.555556 -0.000000    0.00308642  30 t-inv F
 -0.555556  0.166667 -0.000000    0.00308642  30 t-inv F
  0.555556 -0.166667  0.000000    0.00308642  30 t-inv F
  0.166667  0.388889 -0.000000    0.00308642  30 t-inv F
 -0.166667 -0.388889  0.000000    0.00308642  30 t-inv F
 -0.222222 -0.222222 -0.000000    0.00308642  31 t-inv F
  0.222222 -0.444444 -0.000000    0.00308642  31 t-inv F
 -0.222222  0.444444  0.000000    0.00308642  31 t-inv F
 -0.444444  0.222222  0.000000    0.00308642  31 t-inv F
  0.444444 -0.222222 -0.000000    0.00308642  31 t-inv F
 -0.277778 -0.222222 -0.000000    0.00308642  32 t-inv F
  0.277778 -0.500000 -0.000000    0.00308642  32 t-inv F
 -0.277778  0.500000  0.000000    0.00308642  32 t-inv F
 -0.500000  0.277778  0.000000    0.00308642  32 t-inv F
  0.500000 -0.277778 -0.000000    0.00308642  32 t-inv F
  0.222222 -0.500000  0.000000    0.00308642  32 t-inv F
 -0.222222  0.500000 -0.000000    0.00308642  32 t-inv F
 -0.500000  0.222222 -0.000000    0.00308642  32 t-inv F
  0.500000 -0.222222  0.000000    0.00308642  32 t-inv F
  0.222222  0.277778 -0.000000    0.00308642  32 t-inv F
 -0.222222 -0.277778  0.000000    0.00308642  32 t-inv F
 -0.333333 -0.222222 -0.000000    0.00308642  33 t-inv F
  0.333333 -0.555556 -0.000000    0.00308642  33 t-inv F
 -0.333333  0.555556  0.000000    0.00308642  33 t-inv F
 -0.555556  0.333333  0.000000    0.00308642  33 t-inv F
  0.555556 -0.333333 -0.000000    0.00308642  33 t-inv F
  0.222222 -0.555556  0.000000    0.00308642  33 t-inv F
 -0.222222  0.555556 -0.000000    0.00308642  33 t-inv F
 -0.555556  0.222222 -0.000000    0.00308642  33 t-inv F
  0.555556 -0.222222  0.000000    0.00308642  33 t-inv F
  0.222222  0.333333 -0.000000    0.00308642  33 t-inv F
 -0.222222 -0.333333  0.000000    0.00308642  33 t-inv F
 -0.388889 -0.222222 -0.000000    0.00308642  34 t-inv F
  0.388889 -0.611111 -0.000000    0.00308642  34 t-inv F
 -0.388889  0.611111  0.000000    0.00308642  34 t-inv F
  0.222222 -0.611111  0.000000    0.00308642  34 t-inv F
 -0.222222  0.611111 -0.000000    0.00308642  34 t-inv F
 -0.277778 -0.277778 -0.000000    0.00308642  35 t-inv F
  0.277778 -0.555556 -0.000000    0.00308642  35 t-inv F
 -0.277778  0.555556  0.000000    0.00308642  35 t-inv F
 -0.555556  0.277778  0.000000    0.00308642  35 t-inv F
  0.555556 -0.277778 -0.000000    0.00308642  35 t-inv F
 -0.333333 -0.277778 -0.000000    0.00308642  36 t-inv F
  0.333333 -0.611111 -0.000000    0.00308642  36 t-inv F
 -0.333333  0.611111  0.000000    0.00308642  36 t-inv F
 -0.611111  0.333333  0.000000    0.00308642  36 t-inv F
  0.611111 -0.333333 -0.000000    0.00308642  36 t-inv F
  0.277778 -0.611111  0.000000    0.00308642  36 t-inv F
 -0.277778  0.611111 -0.000000    0.00308642  36 t-inv F
 -0.611111  0.277778 -0.000000    0.00308642  36 t-inv F
  0.611111 -0.277778  0.000000    0.00308642  36 t-inv F
  0.277778  0.333333 -0.000000    0.00308642  36 t-inv F
 -0.277778 -0.333333  0.000000    0.00308642  36 t-inv F
 -0.333333 -0.333333 -0.000000    0.00308642  37 t-inv F


--------------------------------------------------------------------------------------------------------




 Dimension of arrays:
   k-points           NKPTS =     37   k-points in BZ     NKDIM =     37   number of bands    NBANDS=    112
   number of dos      NEDOS =    301   number of ions     NIONS =     18
   non local maximal  LDIM  =      8   non local SUM 2l+1 LMDIM =     26
   total plane-waves  NPLWV = 117600
   max r-space proj   IRMAX =      1   max aug-charges    IRDMAX=  10412
   dimension x,y,z NGX =    20 NGY =   20 NGZ =  294
   dimension x,y,z NGXF=    40 NGYF=   40 NGZF=  588
   support grid    NGXF=    40 NGYF=   40 NGZF=  588
   ions per type =               6  12
 NGX,Y,Z   is equivalent  to a cutoff of  10.44, 10.44,  9.78 a.u.
 NGXF,Y,Z  is equivalent  to a cutoff of  20.87, 20.87, 19.55 a.u.


 I would recommend the setting:
   dimension x,y,z NGX =    19 NGY =   19 NGZ =  290
 SYSTEM =  unknown system                          
 POSCAR =   W  S                                   

 Startparameter for this run:
   NWRITE =      2    write-flag & timer
   PREC   = accura    normal or accurate (medium, high low for compatibility)
   ISTART =      0    job   : 0-new  1-cont  2-samecut
   ICHARG =      2    charge: 1-file 2-atom 10-const
   ISPIN  =      1    spin polarized calculation?
   LNONCOLLINEAR =      F non collinear calculations
   LSORBIT =      F    spin-orbit coupling
   INIWAV =      1    electr: 0-lowe 1-rand  2-diag
   LASPH  =      F    aspherical Exc in radial PAW
   METAGGA=      F    non-selfconsistent MetaGGA calc.

 Electronic Relaxation 1
   ENCUT  =  317.1 eV  23.31 Ry    4.83 a.u.   4.63  4.63 72.60*2*pi/ulx,y,z
   ENINI  =  317.1     initial cutoff
   ENAUG  =  807.8 eV  augmentation charge cutoff
   NELM   =     60;   NELMIN=  5; NELMDL= -5     # of ELM steps 
   EDIFF  = 0.1E-07   stopping-criterion for ELM
   LREAL  =      F    real-space projection
   NLSPLINE    = F    spline interpolate recip. space projectors
   LCOMPAT=      F    compatible to vasp.4.4
   GGA_COMPAT  = T    GGA compatible to vasp.4.4-vasp.4.6
   LMAXPAW     = -100 max onsite density
   LMAXMIX     =    2 max onsite mixed and CHGCAR
   VOSKOWN=      0    Vosko Wilk Nusair interpolation
   ROPT   =    0.00000   0.00000
 Ionic relaxation
   EDIFFG = 0.1E-06   stopping-criterion for IOM
   NSW    =      0    number of steps for IOM
   NBLOCK =      1;   KBLOCK =      1    inner block; outer block 
   IBRION =     -1    ionic relax: 0-MD 1-quasi-New 2-CG
   NFREE  =      0    steps in history (QN), initial steepest desc. (CG)
   ISIF   =      2    stress and relaxation
   IWAVPR =     10    prediction:  0-non 1-charg 2-wave 3-comb
   ISYM   =      2    0-nonsym 1-usesym 2-fastsym
   LCORR  =      T    Harris-Foulkes like correction to forces

   POTIM  = 0.5000    time-step for ionic-motion
   TEIN   =    0.0    initial temperature
   TEBEG  =    0.0;   TEEND  =   0.0 temperature during run
   SMASS  =  -3.00    Nose mass-parameter (am)
   estimated Nose-frequenzy (Omega)   =  0.10E-29 period in steps =****** mass=  -0.232E-27a.u.
   SCALEE = 1.0000    scale energy and forces
   NPACO  =    256;   APACO  = 16.0  distance and # of slots for P.C.
   PSTRESS=    0.0 pullay stress

  Mass of Ions in am
   POMASS = 183.85 32.07
  Ionic Valenz
   ZVAL   =  14.00  6.00
  Atomic Wigner-Seitz radii
   RWIGS  =  -1.00 -1.00
  virtual crystal weights 
   VCA    =   1.00  1.00
   NELECT =     156.0000    total number of electrons
   NUPDOWN=      -1.0000    fix difference up-down

 DOS related values:
   EMIN   =  10.00;   EMAX   =-10.00  energy-range for DOS
   EFERMI =   0.00
   ISMEAR =    -5;   SIGMA  =   0.01  broadening in eV -4-tet -1-fermi 0-gaus

 Electronic relaxation 2 (details)
   IALGO  =     38    algorithm
   LDIAG  =      T    sub-space diagonalisation (order eigenvalues)
   LSUBROT=      F    optimize rotation matrix (better conditioning)
   TURBO    =      0    0=normal 1=particle mesh
   IRESTART =      0    0=no restart 2=restart with 2 vectors
   NREBOOT  =      0    no. of reboots
   NMIN     =      0    reboot dimension
   EREF     =   0.00    reference energy to select bands
   IMIX   =      4    mixing-type and parameters
     AMIX     =   0.40;   BMIX     =  1.00
     AMIX_MAG =   1.60;   BMIX_MAG =  1.00
     AMIN     =   0.10
     WC   =   100.;   INIMIX=   1;  MIXPRE=   1;  MAXMIX= -45

 Intra band minimization:
   WEIMIN = 0.0000     energy-eigenvalue tresh-hold
   EBREAK =  0.22E-10  absolut break condition
   DEPER  =   0.30     relativ break condition  

   TIME   =   0.40     timestep for ELM

  volume/ion in A,a.u.               =      24.42       164.78
  Fermi-wavevector in a.u.,A,eV,Ry     =   1.159108  2.190396 18.279852  1.343531
  Thomas-Fermi vector in A             =   2.295704
 
 Write flags
   LWAVE  =      T    write WAVECAR
   LCHARG =      T    write CHGCAR
   LVTOT  =      F    write LOCPOT, total local potential
   LVHAR  =      F    write LOCPOT, Hartree potential only
   LELF   =      F    write electronic localiz. function (ELF)
   LORBIT =      0    0 simple, 1 ext, 2 COOP (PROOUT)


 Dipole corrections
   LMONO  =      F    monopole corrections only (constant potential shift)
   LDIPOL =      F    correct potential (dipole corrections)
   IDIPOL =      0    1-x, 2-y, 3-z, 4-all directions 
   EPSILON=  1.0000000 bulk dielectric constant

 Exchange correlation treatment:
   GGA     =    PE    GGA type
   LEXCH   =     8    internal setting for exchange type
   VOSKOWN=      0    Vosko Wilk Nusair interpolation
   LHFCALC =     F    Hartree Fock is set to
   LHFONE  =     F    Hartree Fock one center treatment
   AEXX    =    0.0000 exact exchange contribution

 Linear response parameters
   LEPSILON=     T    determine dielectric tensor
   LRPA    =     F    only Hartree local field effects (RPA)
   LNABLA  =     F    use nabla operator in PAW spheres
   LVEL    =     F    velocity operator in full k-point grid
   LINTERFAST=   F  fast interpolation
   KINTER  =     0    interpolate to denser k-point grid
   CSHIFT  =0.1000    complex shift for real part using Kramers Kronig
   OMEGAMAX=  -1.0    maximum frequency
   DEG_THRESHOLD= 0.2000000E-02 threshold for treating states as degnerate
   RTIME   =    0.100 relaxation time in fs

 Orbital magnetization related:
   ORBITALMAG=     F  switch on orbital magnetization
   LCHIMAG   =     F  perturbation theory with respect to B field
   DQ        =  0.001000  dq finite difference perturbation B field



--------------------------------------------------------------------------------------------------------


 Static calculation
 charge density and potential will be updated during run
 non-spin polarized calculation
 Variant of blocked Davidson
 Davidson routine will perform the subspace rotation
 perform sub-space diagonalisation
    after iterative eigenvector-optimisation
 modified Broyden-mixing scheme, WC =      100.0
 initial mixing is a Kerker type mixing with AMIX =  0.4000 and BMIX =      1.0000
 Hartree-type preconditioning will be used
 using additional bands           34
 reciprocal scheme for non local part
 use partial core corrections
 calculate Harris-corrections to forces 
   (improved forces if not selfconsistent)
 use gradient corrections 
 use of overlap-Matrix (Vanderbilt PP)
 Fermi weights with tetrahedron method with Bloechl corrections


--------------------------------------------------------------------------------------------------------


  energy-cutoff  :      317.13
  volume of cell :      439.52
      direct lattice vectors                 reciprocal lattice vectors
     3.185945950  0.000000000  0.000000000     0.313878520  0.181217848  0.000000000
    -1.592972975  2.759110127  0.000000000     0.000000000  0.362435696  0.000000000
     0.000000000  0.000000000 50.000000000     0.000000000  0.000000000  0.020000000

  length of vectors
     3.185945950  3.185945950 50.000000000     0.362435696  0.362435696  0.020000000


 
 k-points in units of 2pi/SCALE and weight: KPOINTS created by Atomic Simulation Env
   0.00000000  0.00000000  0.00000000       0.003
   0.01743770  0.01006766  0.00000000       0.019
   0.03487539  0.02013532  0.00000000       0.019
   0.05231309  0.03020297  0.00000000       0.019
   0.06975078  0.04027063  0.00000000       0.019
   0.08718848  0.05033829  0.00000000       0.019
   0.10462617  0.06040595  0.00000000       0.019
   0.12206387  0.07047361  0.00000000       0.019
   0.13950156  0.08054127  0.00000000       0.019
   0.15693926  0.09060892  0.00000000       0.009
   0.01743770  0.03020297  0.00000000       0.019
   0.03487539  0.04027063  0.00000000       0.037
   0.05231309  0.05033829  0.00000000       0.037
   0.06975078  0.06040595  0.00000000       0.037
   0.08718848  0.07047361  0.00000000       0.037
   0.10462617  0.08054127  0.00000000       0.037
   0.12206387  0.09060892  0.00000000       0.037
   0.13950156  0.10067658  0.00000000       0.037
   0.03487539  0.06040595  0.00000000       0.019
   0.05231309  0.07047361  0.00000000       0.037
   0.06975078  0.08054127  0.00000000       0.037
   0.08718848  0.09060892  0.00000000       0.037
   0.10462617  0.10067658  0.00000000       0.037
   0.12206387  0.11074424  0.00000000       0.037
   0.13950156  0.12081190  0.00000000       0.019
   0.05231309  0.09060892  0.00000000       0.019
   0.06975078  0.10067658  0.00000000       0.037
   0.08718848  0.11074424  0.00000000       0.037
   0.10462617  0.12081190  0.00000000       0.037
   0.12206387  0.13087956  0.00000000       0.037
   0.06975078  0.12081190  0.00000000       0.019
   0.08718848  0.13087956  0.00000000       0.037
   0.10462617  0.14094722  0.00000000       0.037
   0.12206387  0.15101487  0.00000000       0.019
   0.08718848  0.15101487  0.00000000       0.019
   0.10462617  0.16108253  0.00000000       0.037
   0.10462617  0.18121785  0.00000000       0.006
 
 k-points in reciprocal lattice and weights: KPOINTS created by Atomic Simulation Env
   0.00000000  0.00000000  0.00000000       0.003
   0.05555556  0.00000000  0.00000000       0.019
   0.11111111  0.00000000  0.00000000       0.019
   0.16666667  0.00000000  0.00000000       0.019
   0.22222222  0.00000000  0.00000000       0.019
   0.27777778  0.00000000  0.00000000       0.019
   0.33333333  0.00000000  0.00000000       0.019
   0.38888889  0.00000000  0.00000000       0.019
   0.44444444  0.00000000  0.00000000       0.019
   0.50000000  0.00000000  0.00000000       0.009
   0.05555556  0.05555556  0.00000000       0.019
   0.11111111  0.05555556  0.00000000       0.037
   0.16666667  0.05555556  0.00000000       0.037
   0.22222222  0.05555556  0.00000000       0.037
   0.27777778  0.05555556  0.00000000       0.037
   0.33333333  0.05555556  0.00000000       0.037
   0.38888889  0.05555556  0.00000000       0.037
   0.44444444  0.05555556  0.00000000       0.037
   0.11111111  0.11111111  0.00000000       0.019
   0.16666667  0.11111111  0.00000000       0.037
   0.22222222  0.11111111  0.00000000       0.037
   0.27777778  0.11111111  0.00000000       0.037
   0.33333333  0.11111111  0.00000000       0.037
   0.38888889  0.11111111  0.00000000       0.037
   0.44444444  0.11111111  0.00000000       0.019
   0.16666667  0.16666667  0.00000000       0.019
   0.22222222  0.16666667  0.00000000       0.037
   0.27777778  0.16666667  0.00000000       0.037
   0.33333333  0.16666667  0.00000000       0.037
   0.38888889  0.16666667  0.00000000       0.037
   0.22222222  0.22222222  0.00000000       0.019
   0.27777778  0.22222222  0.00000000       0.037
   0.33333333  0.22222222  0.00000000       0.037
   0.38888889  0.22222222  0.00000000       0.019
   0.27777778  0.27777778  0.00000000       0.019
   0.33333333  0.27777778  0.00000000       0.037
   0.33333333  0.33333333  0.00000000       0.006
 
 position of ions in fractional coordinates (direct lattice) 
   0.16666667  0.33333333  0.19250000
   0.83333333  0.66666667  0.31550000
   0.16666667  0.33333333  0.43850000
   0.83333333  0.66666667  0.56150000
   0.16666667  0.33333333  0.68450000
   0.83333333  0.66666667  0.80750000
   0.83333333  0.66666667  0.22395595
   0.83333333  0.66666667  0.16104405
   0.16666667  0.33333333  0.34695595
   0.16666667  0.33333333  0.28404405
   0.83333333  0.66666667  0.46995595
   0.83333333  0.66666667  0.40704405
   0.16666667  0.33333333  0.59295595
   0.16666667  0.33333333  0.53004405
   0.83333333  0.66666667  0.71595595
   0.83333333  0.66666667  0.65304405
   0.16666667  0.33333333  0.83895595
   0.16666667  0.33333333  0.77604405
 
 position of ions in cartesian coordinates  (Angst):
  -0.00000000  0.91970338  9.62500000
   1.59297297  1.83940675 15.77500000
  -0.00000000  0.91970338 21.92500000
   1.59297297  1.83940675 28.07500000
  -0.00000000  0.91970338 34.22500000
   1.59297297  1.83940675 40.37500000
   1.59297297  1.83940675 11.19779744
   1.59297297  1.83940675  8.05220256
  -0.00000000  0.91970338 17.34779744
  -0.00000000  0.91970338 14.20220256
   1.59297297  1.83940675 23.49779744
   1.59297297  1.83940675 20.35220256
  -0.00000000  0.91970338 29.64779744
  -0.00000000  0.91970338 26.50220256
   1.59297297  1.83940675 35.79779744
   1.59297297  1.83940675 32.65220256
  -0.00000000  0.91970338 41.94779744
  -0.00000000  0.91970338 38.80220256
 


--------------------------------------------------------------------------------------------------------


 k-point  1 :   0.0000 0.0000 0.0000  plane waves:    5665
 k-point  2 :   0.0556 0.0000 0.0000  plane waves:    5678
 k-point  3 :   0.1111 0.0000 0.0000  plane waves:    5694
 k-point  4 :   0.1667 0.0000 0.0000  plane waves:    5688
 k-point  5 :   0.2222 0.0000 0.0000  plane waves:    5678
 k-point  6 :   0.2778 0.0000 0.0000  plane waves:    5680
 k-point  7 :   0.3333 0.0000 0.0000  plane waves:    5664
 k-point  8 :   0.3889 0.0000 0.0000  plane waves:    5618
 k-point  9 :   0.4444 0.0000 0.0000  plane waves:    5614
 k-point 10 :   0.5000 0.0000 0.0000  plane waves:    5640
 k-point 11 :   0.0556 0.0556 0.0000  plane waves:    5667
 k-point 12 :   0.1111 0.0556 0.0000  plane waves:    5690
 k-point 13 :   0.1667 0.0556 0.0000  plane waves:    5692
 k-point 14 :   0.2222 0.0556 0.0000  plane waves:    5676
 k-point 15 :   0.2778 0.0556 0.0000  plane waves:    5662
 k-point 16 :   0.3333 0.0556 0.0000  plane waves:    5638
 k-point 17 :   0.3889 0.0556 0.0000  plane waves:    5616
 k-point 18 :   0.4444 0.0556 0.0000  plane waves:    5629
 k-point 19 :   0.1111 0.1111 0.0000  plane waves:    5683
 k-point 20 :   0.1667 0.1111 0.0000  plane waves:    5684
 k-point 21 :   0.2222 0.1111 0.0000  plane waves:    5654
 k-point 22 :   0.2778 0.1111 0.0000  plane waves:    5640
 k-point 23 :   0.3333 0.1111 0.0000  plane waves:    5632
 k-point 24 :   0.3889 0.1111 0.0000  plane waves:    5617
 k-point 25 :   0.4444 0.1111 0.0000  plane waves:    5622
 k-point 26 :   0.1667 0.1667 0.0000  plane waves:    5641
 k-point 27 :   0.2222 0.1667 0.0000  plane waves:    5630
 k-point 28 :   0.2778 0.1667 0.0000  plane waves:    5640
 k-point 29 :   0.3333 0.1667 0.0000  plane waves:    5611
 k-point 30 :   0.3889 0.1667 0.0000  plane waves:    5600
 k-point 31 :   0.2222 0.2222 0.0000  plane waves:    5625
 k-point 32 :   0.2778 0.2222 0.0000  plane waves:    5604
 k-point 33 :   0.3333 0.2222 0.0000  plane waves:    5590
 k-point 34 :   0.3889 0.2222 0.0000  plane waves:    5584
 k-point 35 :   0.2778 0.2778 0.0000  plane waves:    5569
 k-point 36 :   0.3333 0.2778 0.0000  plane waves:    5542
 k-point 37 :   0.3333 0.3333 0.0000  plane waves:    5520

 maximum and minimum number of plane-waves per node :      5694     5520

 maximum number of plane-waves:      5694
 maximum index in each direction: 
   IXMAX=    4   IYMAX=    4   IZMAX=   72
   IXMIN=   -5   IYMIN=   -4   IZMIN=  -72

 NGX is ok and might be reduce to  20
 NGY is ok and might be reduce to  18
 NGZ is ok and might be reduce to 290

 serial   3D FFT for wavefunctions
 parallel 3D FFT for charge:
    minimum data exchange during FFTs selected (reduces bandwidth)


 total amount of memory used by VASP on root node   143896. kBytes
========================================================================

   base      :      30000. kBytes
   nonl-proj :      89564. kBytes
   fftplans  :       1943. kBytes
   grid      :       7351. kBytes
   one-center:        584. kBytes
   wavefun   :      14454. kBytes
 
     INWAV:  cpu time    0.0010: real time    0.0000
 Broyden mixing: mesh for mixing (old mesh)
   NGX =  9   NGY =  9   NGZ =145
  (NGX  = 40   NGY  = 40   NGZ  =588)
  gives a total of  11745 points

 initial charge density was supplied:
 charge density of overlapping atoms calculated
 number of electron     156.0000000 magnetization 
 keeping initial charge density in first step


--------------------------------------------------------------------------------------------------------


 Maximum index for augmentation-charges          837 (set IRDMAX)


--------------------------------------------------------------------------------------------------------


 First call to EWALD:  gamma=   0.233
 Maximum number of real-space cells 7x 7x 1
 Maximum number of reciprocal cells 1x 1x15

 FEWALD executed in parallel
    FEWALD:  cpu time    0.0010: real time    0.0014


----------------------------------------- Iteration    1(   1)  ---------------------------------------


    POTLOK:  cpu time    0.0310: real time    0.0310
    SETDIJ:  cpu time    0.0070: real time    0.0068
     EDDAV:  cpu time    7.8788: real time    7.8909
 BZINTS: Fermi energy: 14.192220;156.000000 electrons
         Band energy:-907.697167;  BLOECHL correction: -0.060735
       DOS:  cpu time    0.0350: real time    0.0353
    --------------------------------------------
      LOOP:  cpu time    7.9528: real time    7.9662

 eigenvalue-minimisations  :  9492
 total energy-change (2. order) : 0.1073333E+04  (-0.6729116E+04)
 number of electron     156.0000000 magnetization 
 augmentation part      156.0000000 magnetization 

 Free energy of the ion-electron system (eV)
  ---------------------------------------------------
  alpha Z        PSCENC =       421.01035034
  Ewald energy   TEWEN  =     65388.70531494
  -Hartree energ DENC   =    -79020.35429043
  -exchange      EXHF   =         0.00000000
  -V(xc)+E(xc)   XCENC  =        -6.96979046
  PAW double counting   =     12011.50330290   -11316.62811139
  entropy T*S    EENTRO =         0.00000000
  eigenvalues    EBANDS =      -907.69716733
  atomic energy  EATOM  =     14503.76310142
  Solvation  Ediel_sol  =         0.00000000
  ---------------------------------------------------
  free energy    TOTEN  =      1073.33271000 eV

  energy without entropy =     1073.33271000  energy(sigma->0) =     1073.33271000


--------------------------------------------------------------------------------------------------------




----------------------------------------- Iteration    1(   2)  ---------------------------------------


     EDDAV:  cpu time    8.8926: real time    8.9050
 BZINTS: Fermi energy:  5.993043;156.000000 electrons
         Band energy:***********;  BLOECHL correction:  0.000000
       DOS:  cpu time    0.0080: real time    0.0077
    --------------------------------------------
      LOOP:  cpu time    8.9016: real time    8.9156

 eigenvalue-minimisations  : 10892
 total energy-change (2. order) :-0.1160463E+04  (-0.1133739E+04)
 number of electron     156.0000000 magnetization 
 augmentation part      156.0000000 magnetization 

 Free energy of the ion-electron system (eV)
  ---------------------------------------------------
  alpha Z        PSCENC =       421.01035034
  Ewald energy   TEWEN  =     65388.70531494
  -Hartree energ DENC   =    -79020.35429043
  -exchange      EXHF   =         0.00000000
  -V(xc)+E(xc)   XCENC  =        -6.96979046
  PAW double counting   =     12011.50330290   -11316.62811139
  entropy T*S    EENTRO =         0.00000000
  eigenvalues    EBANDS =     -2068.15980644
  atomic energy  EATOM  =     14503.76310142
  Solvation  Ediel_sol  =         0.00000000
  ---------------------------------------------------
  free energy    TOTEN  =       -87.12992910 eV

  energy without entropy =      -87.12992910  energy(sigma->0) =      -87.12992910


--------------------------------------------------------------------------------------------------------




----------------------------------------- Iteration    1(   3)  ---------------------------------------


     EDDAV:  cpu time    8.9626: real time    8.9689
 BZINTS: Fermi energy:  5.321174;156.000000 electrons
         Band energy:***********;  BLOECHL correction:  0.000000
       DOS:  cpu time    0.0070: real time    0.0066
    --------------------------------------------
      LOOP:  cpu time    8.9706: real time    8.9783

 eigenvalue-minimisations  : 10864
 total energy-change (2. order) :-0.8033147E+02  (-0.7956654E+02)
 number of electron     156.0000000 magnetization 
 augmentation part      156.0000000 magnetization 

 Free energy of the ion-electron system (eV)
  ---------------------------------------------------
  alpha Z        PSCENC =       421.01035034
  Ewald energy   TEWEN  =     65388.70531494
  -Hartree energ DENC   =    -79020.35429043
  -exchange      EXHF   =         0.00000000
  -V(xc)+E(xc)   XCENC  =        -6.96979046
  PAW double counting   =     12011.50330290   -11316.62811139
  entropy T*S    EENTRO =         0.00000000
  eigenvalues    EBANDS =     -2148.49127571
  atomic energy  EATOM  =     14503.76310142
  Solvation  Ediel_sol  =         0.00000000
  ---------------------------------------------------
  free energy    TOTEN  =      -167.46139837 eV

  energy without entropy =     -167.46139837  energy(sigma->0) =     -167.46139837


--------------------------------------------------------------------------------------------------------




----------------------------------------- Iteration    1(   4)  ---------------------------------------


     EDDAV:  cpu time   11.1193: real time   11.1340
 BZINTS: Fermi energy:  5.176215;156.000000 electrons
         Band energy:***********;  BLOECHL correction:  0.000000
       DOS:  cpu time    0.0060: real time    0.0061
    --------------------------------------------
      LOOP:  cpu time   11.1263: real time   11.1428

 eigenvalue-minimisations  : 13720
 total energy-change (2. order) :-0.3051487E+01  (-0.3047755E+01)
 number of electron     156.0000000 magnetization 
 augmentation part      156.0000000 magnetization 

 Free energy of the ion-electron system (eV)
  ---------------------------------------------------
  alpha Z        PSCENC =       421.01035034
  Ewald energy   TEWEN  =     65388.70531494
  -Hartree energ DENC   =    -79020.35429043
  -exchange      EXHF   =         0.00000000
  -V(xc)+E(xc)   XCENC  =        -6.96979046
  PAW double counting   =     12011.50330290   -11316.62811139
  entropy T*S    EENTRO =         0.00000000
  eigenvalues    EBANDS =     -2151.54276295
  atomic energy  EATOM  =     14503.76310142
  Solvation  Ediel_sol  =         0.00000000
  ---------------------------------------------------
  free energy    TOTEN  =      -170.51288562 eV

  energy without entropy =     -170.51288562  energy(sigma->0) =     -170.51288562


--------------------------------------------------------------------------------------------------------




----------------------------------------- Iteration    1(   5)  ---------------------------------------


     EDDAV:  cpu time    9.5555: real time    9.5618
 BZINTS: Fermi energy:  5.151454;156.000000 electrons
         Band energy:***********;  BLOECHL correction:  0.000000
       DOS:  cpu time    0.0060: real time    0.0058
    CHARGE:  cpu time    0.2370: real time    0.2368
    MIXING:  cpu time    0.0010: real time    0.0012
    --------------------------------------------
      LOOP:  cpu time    9.8185: real time    9.8292

 eigenvalue-minimisations  : 11704
 total energy-change (2. order) :-0.4760741E-01  (-0.4760517E-01)
 number of electron     156.0000019 magnetization 
 augmentation part      -20.7427702 magnetization 

 Broyden mixing:
  rms(total) = 0.18821E+02    rms(broyden)= 0.18821E+02
  rms(prec ) = 0.18827E+02
  weight for this iteration     100.00

 Free energy of the ion-electron system (eV)
  ---------------------------------------------------
  alpha Z        PSCENC =       421.01035034
  Ewald energy   TEWEN  =     65388.70531494
  -Hartree energ DENC   =    -79020.35429043
  -exchange      EXHF   =         0.00000000
  -V(xc)+E(xc)   XCENC  =        -6.96979046
  PAW double counting   =     12011.50330290   -11316.62811139
  entropy T*S    EENTRO =         0.00000000
  eigenvalues    EBANDS =     -2151.59037037
  atomic energy  EATOM  =     14503.76310142
  Solvation  Ediel_sol  =         0.00000000
  ---------------------------------------------------
  free energy    TOTEN  =      -170.56049303 eV

  energy without entropy =     -170.56049303  energy(sigma->0) =     -170.56049303


--------------------------------------------------------------------------------------------------------




----------------------------------------- Iteration    1(   6)  ---------------------------------------


    POTLOK:  cpu time    0.0280: real time    0.0285
    SETDIJ:  cpu time    0.0070: real time    0.0068
     EDDAV:  cpu time    7.6438: real time    7.6479
 BZINTS: Fermi energy:  4.007886;156.000000 electrons
         Band energy:***********;  BLOECHL correction:  0.000000
       DOS:  cpu time    0.0060: real time    0.0058
    CHARGE:  cpu time    0.2320: real time    0.2323
    MIXING:  cpu time    0.0010: real time    0.0011
    --------------------------------------------
      LOOP:  cpu time    7.9188: real time    7.9264

 eigenvalue-minimisations  :  9072
 total energy-change (2. order) : 0.1515405E+02  (-0.5187837E+01)
 number of electron     156.0000018 magnetization 
 augmentation part      -19.4418377 magnetization 

 Broyden mixing:
  rms(total) = 0.17261E+02    rms(broyden)= 0.17261E+02
  rms(prec ) = 0.17262E+02
  weight for this iteration     100.00

 eigenvalues of (default mixing * dielectric matrix)
  average eigenvalue GAMMA=   3.4197
  3.4197

 Free energy of the ion-electron system (eV)
  ---------------------------------------------------
  alpha Z        PSCENC =       421.01035034
  Ewald energy   TEWEN  =     65388.70531494
  -Hartree energ DENC   =    -78799.58885282
  -exchange      EXHF   =         0.00000000
  -V(xc)+E(xc)   XCENC  =        -9.95313683
  PAW double counting   =     15131.97077482   -14446.71396005
  entropy T*S    EENTRO =         0.00000000
  eigenvalues    EBANDS =     -2344.60003765
  atomic energy  EATOM  =     14503.76310142
  Solvation  Ediel_sol  =         0.00000000
  ---------------------------------------------------
  free energy    TOTEN  =      -155.40644582 eV

  energy without entropy =     -155.40644582  energy(sigma->0) =     -155.40644582


--------------------------------------------------------------------------------------------------------




----------------------------------------- Iteration    1(   7)  ---------------------------------------


    POTLOK:  cpu time    0.0280: real time    0.0282
    SETDIJ:  cpu time    0.0070: real time    0.0068
     EDDAV:  cpu time    8.0618: real time    8.0660
 BZINTS: Fermi energy:  5.393186;156.000000 electrons
         Band energy:***********;  BLOECHL correction:  0.000000
       DOS:  cpu time    0.0060: real time    0.0065
    CHARGE:  cpu time    0.2300: real time    0.2302
    MIXING:  cpu time    0.0010: real time    0.0011
    --------------------------------------------
      LOOP:  cpu time    8.3347: real time    8.3413

 eigenvalue-minimisations  :  9436
 total energy-change (2. order) :-0.1094785E+02  (-0.6936166E+01)
 number of electron     156.0000018 magnetization 
 augmentation part      -20.3881126 magnetization 

 Broyden mixing:
  rms(total) = 0.10329E+02    rms(broyden)= 0.10329E+02
  rms(prec ) = 0.10340E+02
  weight for this iteration     100.00

 eigenvalues of (default mixing * dielectric matrix)
  average eigenvalue GAMMA=   1.5367
  0.8836  2.1898

 Free energy of the ion-electron system (eV)
  ---------------------------------------------------
  alpha Z        PSCENC =       421.01035034
  Ewald energy   TEWEN  =     65388.70531494
  -Hartree energ DENC   =    -79041.34149017
  -exchange      EXHF   =         0.00000000
  -V(xc)+E(xc)   XCENC  =       -10.37494170
  PAW double counting   =     24395.96779768   -23693.95740952
  entropy T*S    EENTRO =         0.00000000
  eigenvalues    EBANDS =     -2130.12702224
  atomic energy  EATOM  =     14503.76310142
  Solvation  Ediel_sol  =         0.00000000
  ---------------------------------------------------
  free energy    TOTEN  =      -166.35429924 eV

  energy without entropy =     -166.35429924  energy(sigma->0) =     -166.35429924


--------------------------------------------------------------------------------------------------------




----------------------------------------- Iteration    1(   8)  ---------------------------------------


    POTLOK:  cpu time    0.0280: real time    0.0287
    SETDIJ:  cpu time    0.0070: real time    0.0068
     EDDAV:  cpu time    7.7098: real time    7.7218
 BZINTS: Fermi energy:  4.304299;156.000000 electrons
         Band energy:***********;  BLOECHL correction:  0.000000
       DOS:  cpu time    0.0070: real time    0.0065
    CHARGE:  cpu time    0.2450: real time    0.2453
    MIXING:  cpu time    0.0010: real time    0.0011
    --------------------------------------------
      LOOP:  cpu time    7.9988: real time    8.0127

 eigenvalue-minimisations  :  8876
 total energy-change (2. order) : 0.1274821E+02  (-0.2757224E+01)
 number of electron     156.0000018 magnetization 
 augmentation part      -19.6622615 magnetization 

 Broyden mixing:
  rms(total) = 0.21964E+00    rms(broyden)= 0.21904E+00
  rms(prec ) = 0.21986E+00
  weight for this iteration     100.00

 eigenvalues of (default mixing * dielectric matrix)
  average eigenvalue GAMMA=   1.3916
  2.1302  1.2485  0.7960

 Free energy of the ion-electron system (eV)
  ---------------------------------------------------
  alpha Z        PSCENC =       421.01035034
  Ewald energy   TEWEN  =     65388.70531494
  -Hartree energ DENC   =    -78849.42741430
  -exchange      EXHF   =         0.00000000
  -V(xc)+E(xc)   XCENC  =       -10.96105597
  PAW double counting   =     20669.79288308   -19976.49404153
  entropy T*S    EENTRO =         0.00000000
  eigenvalues    EBANDS =     -2299.99523010
  atomic energy  EATOM  =     14503.76310142
  Solvation  Ediel_sol  =         0.00000000
  ---------------------------------------------------
  free energy    TOTEN  =      -153.60609211 eV

  energy without entropy =     -153.60609211  energy(sigma->0) =     -153.60609211


--------------------------------------------------------------------------------------------------------




----------------------------------------- Iteration    1(   9)  ---------------------------------------


    POTLOK:  cpu time    0.0330: real time    0.0328
    SETDIJ:  cpu time    0.0070: real time    0.0074
     EDDAV:  cpu time    9.4966: real time    9.5035
 BZINTS: Fermi energy:  4.246581;156.000000 electrons
         Band energy:***********;  BLOECHL correction:  0.000000
       DOS:  cpu time    0.0060: real time    0.0058
    CHARGE:  cpu time    0.2290: real time    0.2297
    MIXING:  cpu time    0.0010: real time    0.0011
    --------------------------------------------
      LOOP:  cpu time    9.7735: real time    9.7829

 eigenvalue-minimisations  : 11060
 total energy-change (2. order) :-0.3311389E+00  (-0.3546500E+00)
 number of electron     156.0000018 magnetization 
 augmentation part      -19.6584264 magnetization 

 Broyden mixing:
  rms(total) = 0.51214E+00    rms(broyden)= 0.51209E+00
  rms(prec ) = 0.51272E+00
  weight for this iteration     100.00

 eigenvalues of (default mixing * dielectric matrix)
  average eigenvalue GAMMA=   1.1522
  1.7484  1.7484  0.7796  0.3326

 Free energy of the ion-electron system (eV)
  ---------------------------------------------------
  alpha Z        PSCENC =       421.01035034
  Ewald energy   TEWEN  =     65388.70531494
  -Hartree energ DENC   =    -78855.70624064
  -exchange      EXHF   =         0.00000000
  -V(xc)+E(xc)   XCENC  =       -10.78693422
  PAW double counting   =     20520.48446744   -19826.06598439
  entropy T*S    EENTRO =         0.00000000
  eigenvalues    EBANDS =     -2295.34130586
  atomic energy  EATOM  =     14503.76310142
  Solvation  Ediel_sol  =         0.00000000
  ---------------------------------------------------
  free energy    TOTEN  =      -153.93723096 eV

  energy without entropy =     -153.93723096  energy(sigma->0) =     -153.93723096


--------------------------------------------------------------------------------------------------------




----------------------------------------- Iteration    1(  10)  ---------------------------------------


    POTLOK:  cpu time    0.0280: real time    0.0287
    SETDIJ:  cpu time    0.0070: real time    0.0069
     EDDAV:  cpu time    9.0716: real time    9.0761
 BZINTS: Fermi energy:  4.401373;156.000000 electrons
         Band energy:***********;  BLOECHL correction:  0.000000
       DOS:  cpu time    0.0060: real time    0.0065
    CHARGE:  cpu time    0.2320: real time    0.2321
    MIXING:  cpu time    0.0010: real time    0.0011
    --------------------------------------------
      LOOP:  cpu time    9.3466: real time    9.3542

 eigenvalue-minimisations  : 11060
 total energy-change (2. order) : 0.5295306E-02  (-0.7543393E-02)
 number of electron     156.0000018 magnetization 
 augmentation part      -19.6755760 magnetization 

 Broyden mixing:
  rms(total) = 0.39490E+00    rms(broyden)= 0.39489E+00
  rms(prec ) = 0.39542E+00
  weight for this iteration     100.00

 eigenvalues of (default mixing * dielectric matrix)
  average eigenvalue GAMMA=   1.2763
  1.8861  1.4927  1.4927  0.7550  0.7550

 Free energy of the ion-electron system (eV)
  ---------------------------------------------------
  alpha Z        PSCENC =       421.01035034
  Ewald energy   TEWEN  =     65388.70531494
  -Hartree energ DENC   =    -78859.69932401
  -exchange      EXHF   =         0.00000000
  -V(xc)+E(xc)   XCENC  =       -10.71098353
  PAW double counting   =     20310.15275494   -19615.36920638
  entropy T*S    EENTRO =         0.00000000
  eigenvalues    EBANDS =     -2291.78394338
  atomic energy  EATOM  =     14503.76310142
  Solvation  Ediel_sol  =         0.00000000
  ---------------------------------------------------
  free energy    TOTEN  =      -153.93193565 eV

  energy without entropy =     -153.93193565  energy(sigma->0) =     -153.93193565


--------------------------------------------------------------------------------------------------------




----------------------------------------- Iteration    1(  11)  ---------------------------------------


    POTLOK:  cpu time    0.0290: real time    0.0286
    SETDIJ:  cpu time    0.0070: real time    0.0068
     EDDAV:  cpu time    9.9055: real time    9.9564
 BZINTS: Fermi energy:  4.381421;156.000000 electrons
         Band energy:***********;  BLOECHL correction:  0.000000
       DOS:  cpu time    0.0060: real time    0.0065
    CHARGE:  cpu time    0.2280: real time    0.2505
    MIXING:  cpu time    0.0010: real time    0.0013
    --------------------------------------------
      LOOP:  cpu time   10.1775: real time   10.2528

 eigenvalue-minimisations  : 11088
 total energy-change (2. order) : 0.2174532E-01  (-0.4262126E-02)
 number of electron     156.0000018 magnetization 
 augmentation part      -19.6881317 magnetization 

 Broyden mixing:
  rms(total) = 0.14642E+00    rms(broyden)= 0.14642E+00
  rms(prec ) = 0.14658E+00
  weight for this iteration     100.00

 eigenvalues of (default mixing * dielectric matrix)
  average eigenvalue GAMMA=   1.4713
  2.7054  2.5071  1.2596  0.8970  0.8426  0.6163

 Free energy of the ion-electron system (eV)
  ---------------------------------------------------
  alpha Z        PSCENC =       421.01035034
  Ewald energy   TEWEN  =     65388.70531494
  -Hartree energ DENC   =    -78868.98829485
  -exchange      EXHF   =         0.00000000
  -V(xc)+E(xc)   XCENC  =       -10.63923128
  PAW double counting   =     20023.56175252   -19328.02690412
  entropy T*S    EENTRO =         0.00000000
  eigenvalues    EBANDS =     -2283.29627931
  atomic energy  EATOM  =     14503.76310142
  Solvation  Ediel_sol  =         0.00000000
  ---------------------------------------------------
  free energy    TOTEN  =      -153.91019034 eV

  energy without entropy =     -153.91019034  energy(sigma->0) =     -153.91019034


--------------------------------------------------------------------------------------------------------




----------------------------------------- Iteration    1(  12)  ---------------------------------------


    POTLOK:  cpu time    0.0310: real time    0.0317
    SETDIJ:  cpu time    0.0070: real time    0.0069
     EDDAV:  cpu time    8.8996: real time    9.2420
 BZINTS: Fermi energy:  4.395322;156.000000 electrons
         Band energy:***********;  BLOECHL correction:  0.000000
       DOS:  cpu time    0.0070: real time    0.0066
    CHARGE:  cpu time    0.2310: real time    0.2307
    MIXING:  cpu time    0.0010: real time    0.0012
    --------------------------------------------
      LOOP:  cpu time    9.1776: real time    9.5237

 eigenvalue-minimisations  : 10724
 total energy-change (2. order) :-0.6880273E-03  (-0.2700763E-02)
 number of electron     156.0000018 magnetization 
 augmentation part      -19.6906093 magnetization 

 Broyden mixing:
  rms(total) = 0.39597E+00    rms(broyden)= 0.39597E+00
  rms(prec ) = 0.39599E+00
  weight for this iteration     100.00

 eigenvalues of (default mixing * dielectric matrix)
  average eigenvalue GAMMA=   1.3043
  2.3913  2.3913  0.9949  0.9949  0.9464  0.7057  0.7057

 Free energy of the ion-electron system (eV)
  ---------------------------------------------------
  alpha Z        PSCENC =       421.01035034
  Ewald energy   TEWEN  =     65388.70531494
  -Hartree energ DENC   =    -78877.22595066
  -exchange      EXHF   =         0.00000000
  -V(xc)+E(xc)   XCENC  =       -10.52540112
  PAW double counting   =     19648.53904289   -18951.91144746
  entropy T*S    EENTRO =         0.00000000
  eigenvalues    EBANDS =     -2276.26588872
  atomic energy  EATOM  =     14503.76310142
  Solvation  Ediel_sol  =         0.00000000
  ---------------------------------------------------
  free energy    TOTEN  =      -153.91087836 eV

  energy without entropy =     -153.91087836  energy(sigma->0) =     -153.91087836


--------------------------------------------------------------------------------------------------------




----------------------------------------- Iteration    1(  13)  ---------------------------------------


    POTLOK:  cpu time    0.0290: real time    0.0288
    SETDIJ:  cpu time    0.0070: real time    0.0069
     EDDAV:  cpu time    8.8767: real time    8.9273
 BZINTS: Fermi energy:  4.379685;156.000000 electrons
         Band energy:***********;  BLOECHL correction:  0.000000
       DOS:  cpu time    0.0060: real time    0.0065
    CHARGE:  cpu time    0.2530: real time    0.2533
    MIXING:  cpu time    0.0010: real time    0.0013
    --------------------------------------------
      LOOP:  cpu time    9.1736: real time    9.2281

 eigenvalue-minimisations  :  9912
 total energy-change (2. order) : 0.1317496E-02  (-0.6005458E-03)
 number of electron     156.0000018 magnetization 
 augmentation part      -19.6975550 magnetization 

 Broyden mixing:
[...]
  free energy    TOTEN  =        -2.00850271 eV

  energy without entropy =       -2.00850271


----------------------------------------- Iteration    3(  21)  ---------------------------------------


   POT+DIJ:  cpu time    0.0730: real time    0.0741
    HAMIL1:  cpu time    1.6088: real time    1.6094
    LRDIAG:  cpu time    0.3389: real time    0.3395
    LRDIIS:  cpu time    6.0631: real time    6.0667
    LRDIAG:  cpu time    0.3339: real time    0.3339
    MIXING:  cpu time    0.0020: real time    0.0018
    --------------------------------------------
      LOOP:  cpu time    9.0936: real time    9.1029

 Broyden mixing:
  rms(total) = 0.21901E-05    rms(broyden)= 0.21886E-05
  rms(prec ) = 0.22517E-05
  weight for this iteration     100.00

 eigenvalues of (default mixing * dielectric matrix)
  average eigenvalue GAMMA=   2.1798
  9.0431  5.5088  4.4483  2.9923  2.9923  2.3193  2.1418  1.7033  1.5118  1.1386
  0.9676  0.9676  0.9966  0.9966  0.6762  0.7028  0.7277  0.8046  0.7767

 Free energy of the ion-electron system (eV)
  ---------------------------------------------------
  -Hartree energ DENC   =        -1.27160420
  -V(xc)+E(xc)   XCENC  =         0.02882711
  PAW double counting   =         0.08995058       -0.09027146
  entropy T*S    EENTRO =         0.00000000
  eigenvalues    EBANDS =        -0.76540027
  ---------------------------------------------------
  free energy    TOTEN  =        -2.00849825 eV

  energy without entropy =       -2.00849825


----------------------------------------- Iteration    3(  22)  ---------------------------------------


   POT+DIJ:  cpu time    0.0730: real time    0.0738
    HAMIL1:  cpu time    1.6138: real time    1.6148
    LRDIAG:  cpu time    0.3449: real time    0.3457
    LRDIIS:  cpu time    5.4842: real time    5.4868
    LRDIAG:  cpu time    0.3359: real time    0.3361
    MIXING:  cpu time    0.0020: real time    0.0018
    --------------------------------------------
      LOOP:  cpu time    8.4677: real time    8.4749

 Broyden mixing:
  rms(total) = 0.91939E-06    rms(broyden)= 0.91907E-06
  rms(prec ) = 0.95068E-06
  weight for this iteration     100.00

 eigenvalues of (default mixing * dielectric matrix)
  average eigenvalue GAMMA=   2.1783
  9.0362  5.5040  4.4591  3.2063  3.2063  2.2458  2.2458  1.7778  1.7778  1.5382
  1.0554  1.0554  0.9683  0.9683  0.9018  0.8079  0.6761  0.7265  0.7025  0.7069

 Free energy of the ion-electron system (eV)
  ---------------------------------------------------
  -Hartree energ DENC   =        -1.27160752
  -V(xc)+E(xc)   XCENC  =         0.02882743
  PAW double counting   =         0.08994593       -0.09026680
  entropy T*S    EENTRO =         0.00000000
  eigenvalues    EBANDS =        -0.76540553
  ---------------------------------------------------
  free energy    TOTEN  =        -2.00850648 eV

  energy without entropy =       -2.00850648


------------------------ aborting loop because EDIFF is reached ----------------------------------------


 change of polarisation eV/A/(eV/A) component  3 :    -0.009     0.003     3.913
 dielectric tensor                  component  3 :    -0.004     0.001     2.611


--------------------------------------------------------------------------------------------------------


    FORLOC:  cpu time    0.0040: real time    0.0042
    FORNL :  cpu time    2.3906: real time    2.3900
    STRESS:  cpu time    5.4102: real time    5.4118
    FORCOR:  cpu time    0.0300: real time    0.0296
    OFIELD:  cpu time    0.0000: real time    0.0002

  Hirshfeld charges:
            ion         q(e)     
   ------------------------------
      1     W           0.351
      2     W           0.350
      3     W           0.350
      4     W           0.350
      5     W           0.350
      6     W           0.351
      7     S          -0.175
      8     S          -0.176
      9     S          -0.175
     10     S          -0.175
     11     S          -0.175
     12     S          -0.175
     13     S          -0.175
     14     S          -0.175
     15     S          -0.175
     16     S          -0.175
     17     S          -0.176
     18     S          -0.175

  Tkatchenko/Scheffler method for vdW energy calculation
  ---------------------------------------------------------------------------------------------

  Parameters of vdW forcefield:
            C6ts              R0ts           ALPHAts        RELVOL
            (au)              (au)            (au)                
   ---------------------------------------------------------------
   W         873.751          4.102         72.114          1.015
   W         882.127          4.109         72.459          1.020
   W         882.172          4.109         72.461          1.020
   W         882.172          4.109         72.461          1.020
   W         882.127          4.109         72.459          1.020
   W         873.751          4.102         72.114          1.015
   S         135.468          3.862         19.707          1.005
   S         132.621          3.848         19.499          0.995
   S         135.473          3.862         19.707          1.005
   S         135.466          3.862         19.707          1.005
   S         135.472          3.862         19.707          1.005
   S         135.472          3.862         19.707          1.005
   S         135.472          3.862         19.707          1.005
   S         135.472          3.862         19.707          1.005
   S         135.466          3.862         19.707          1.005
   S         135.473          3.862         19.707          1.005
   S         132.621          3.848         19.499          0.995
   S         135.468          3.862         19.707          1.005
  Edisp (eV):   -5.09623
    FORVDW:  cpu time    0.8509: real time    0.8504
    FORLOC:  cpu time    0.0040: real time    0.0041
    FORNL :  cpu time    2.4016: real time    2.4020
    STRESS:  cpu time    5.4092: real time    5.4095
    FORCOR:  cpu time    0.0300: real time    0.0297
    OFIELD:  cpu time    0.0000: real time    0.0002

  Hirshfeld charges:
            ion         q(e)     
   ------------------------------
      1     W           0.351
      2     W           0.350
      3     W           0.350
      4     W           0.350
      5     W           0.350
      6     W           0.351
      7     S          -0.175
      8     S          -0.176
      9     S          -0.175
     10     S          -0.175
     11     S          -0.175
     12     S          -0.175
     13     S          -0.175
     14     S          -0.175
     15     S          -0.175
     16     S          -0.175
     17     S          -0.176
     18     S          -0.175

  Tkatchenko/Scheffler method for vdW energy calculation
  ---------------------------------------------------------------------------------------------

  Parameters of vdW forcefield:
            C6ts              R0ts           ALPHAts        RELVOL
            (au)              (au)            (au)                
   ---------------------------------------------------------------
   W         873.751          4.102         72.114          1.015
   W         882.127          4.109         72.459          1.020
   W         882.172          4.109         72.461          1.020
   W         882.172          4.109         72.461          1.020
   W         882.127          4.109         72.459          1.020
   W         873.751          4.102         72.114          1.015
   S         135.468          3.862         19.707          1.005
   S         132.621          3.848         19.499          0.995
   S         135.473          3.862         19.707          1.005
   S         135.466          3.862         19.707          1.005
   S         135.472          3.862         19.707          1.005
   S         135.472          3.862         19.707          1.005
   S         135.472          3.862         19.707          1.005
   S         135.472          3.862         19.707          1.005
   S         135.466          3.862         19.707          1.005
   S         135.473          3.862         19.707          1.005
   S         132.621          3.848         19.499          0.995
   S         135.468          3.862         19.707          1.005
  Edisp (eV):   -5.09623
    FORVDW:  cpu time    0.8509: real time    0.8506
    FORNLD:  cpu time    4.5723: real time    4.5736

 PIEZOELECTRIC TENSOR FIELD DIRECTION 3  (e Angst)
 -----------------------------------------------------------------------------
     0.07294 -0.00000  0.00000           ( -0.00000 -0.00000  0.00000)
     0.00000  0.07294 -0.00000           (  0.00000 -0.00000  0.00000)
     0.00000 -0.00000  0.06133           (  0.00000 -0.00000  0.00000)

 PIEZOELECTRIC TENSOR FIELD DIRECTION 3  (C/m^2)
 -----------------------------------------------------------------------------
     0.00266 -0.00000  0.00000
     0.00000  0.00266 -0.00000
     0.00000 -0.00000  0.00224


      POSITION         DIRECTION 3           BORN EFFECTIVE CHARGE    (rigid.aug.   ionic)
 -----------------------------------------------------------------------------------------
     -0.00000      0.91970      9.62500    -0.00000  0.00000-42.38488 (  1.96478 14.00000)
      1.59297      1.83941     15.77500    -0.00000 -0.00000-16.29933 (  1.96472 14.00000)
     -0.00000      0.91970     21.92500    -0.00000  0.00000 -3.34929 (  1.96472 14.00000)
      1.59297      1.83941     28.07500    -0.00000  0.00000 -3.36167 (  1.96472 14.00000)
     -0.00000      0.91970     34.22500     0.00000 -0.00000-16.31459 (  1.96472 14.00000)
      1.59297      1.83941     40.37500     0.00000 -0.00000-42.40862 (  1.96478 14.00000)
      1.59297      1.83941     11.19780     0.00000  0.00000 -6.85400 (  0.65943  6.00000)
      1.59297      1.83941      8.05220    -0.00000 -0.00000  3.86061 (  0.65870  6.00000)
     -0.00000      0.91970     17.34780     0.00000 -0.00000 -1.88021 (  0.65946  6.00000)
     -0.00000      0.91970     14.20220     0.00000 -0.00000  2.67089 (  0.65945  6.00000)
      1.59297      1.83941     23.49780    -0.00000  0.00000  0.18784 (  0.65946  6.00000)
      1.59297      1.83941     20.35220     0.00000  0.00000  1.26563 (  0.65946  6.00000)
     -0.00000      0.91970     29.64780     0.00000 -0.00000  1.05465 (  0.65946  6.00000)
     -0.00000      0.91970     26.50220    -0.00000 -0.00000  0.11510 (  0.65946  6.00000)
      1.59297      1.83941     35.79780    -0.00000  0.00000  3.00917 (  0.65945  6.00000)
      1.59297      1.83941     32.65220     0.00000  0.00000 -1.59065 (  0.65946  6.00000)
     -0.00000      0.91970     41.94780    -0.00000  0.00000  3.60172 (  0.65870  6.00000)
     -0.00000      0.91970     38.80220     0.00000 -0.00000 -7.14412 (  0.65943  6.00000)
 -----------------------------------------------------------------------------------------
    total drift (improves with k-points):   0.00000 -0.00000*********




--------------------------------------------------------------------------------------------------------


  LATTYP: Found a hexagonal cell.
 ALAT       =     3.1859459497
 C/A-ratio  =    15.6939260082
  
  Lattice vectors:
  
 A1 = (   3.1859459497,   0.0000000000,   0.0000000000)
 A2 = (  -1.5929729748,   2.7591101275,   0.0000000000)
 A3 = (   0.0000000000,   0.0000000000,  50.0000000000)


Analysis of symmetry for initial positions (statically):
=====================================================================
 Subroutine PRICEL returns:
 Original cell was already a primitive cell.
 

 Routine SETGRP: Setting up the symmetry group for a 
 hexagonal supercell.


 Subroutine GETGRP returns: Found 12 space group operations
 (whereof  4 operations were pure point group operations)
 out of a pool of 24 trial point group operations.


The static configuration has the point symmetry C_2h.
 The point group associated with its full space group is D_3d.


Analysis of symmetry for dynamics (positions and initial velocities):
=====================================================================
 Subroutine PRICEL returns:
 Original cell was already a primitive cell.
 

 Routine SETGRP: Setting up the symmetry group for a 
 hexagonal supercell.


 Subroutine GETGRP returns: Found 12 space group operations
 (whereof  4 operations were pure point group operations)
 out of a pool of 24 trial point group operations.


The dynamic configuration has the point symmetry C_2h.
 The point group associated with its full space group is D_3d.


 Subroutine INISYM returns: Found 12 space group operations
 (whereof  4 operations are pure point group operations),
 and found     1 'primitive' translations



 MACROSCOPIC STATIC DIELECTRIC TENSOR (including local field effects in DFT)
 ------------------------------------------------------
          10.619787     0.000000     0.000000
           0.000000    10.619787     0.000000
          -0.000000    -0.000000     2.611074
 ------------------------------------------------------



--------------------------------------------------------------------------------------------------------


  LATTYP: Found a hexagonal cell.
 ALAT       =     3.1859459497
 C/A-ratio  =    15.6939260082
  
  Lattice vectors:
  
 A1 = (   3.1859459497,   0.0000000000,   0.0000000000)
 A2 = (  -1.5929729748,   2.7591101275,   0.0000000000)
 A3 = (   0.0000000000,   0.0000000000,  50.0000000000)


Analysis of symmetry for initial positions (statically):
=====================================================================
 Subroutine PRICEL returns:
 Original cell was already a primitive cell.
 

 Routine SETGRP: Setting up the symmetry group for a 
 hexagonal supercell.


 Subroutine GETGRP returns: Found 12 space group operations
 (whereof  4 operations were pure point group operations)
 out of a pool of 24 trial point group operations.


The static configuration has the point symmetry C_2h.
 The point group associated with its full space group is D_3d.


Analysis of symmetry for dynamics (positions and initial velocities):
=====================================================================
 Subroutine PRICEL returns:
 Original cell was already a primitive cell.
 

 Routine SETGRP: Setting up the symmetry group for a 
 hexagonal supercell.


 Subroutine GETGRP returns: Found 12 space group operations
 (whereof  4 operations were pure point group operations)
 out of a pool of 24 trial point group operations.


The dynamic configuration has the point symmetry C_2h.
 The point group associated with its full space group is D_3d.


 Subroutine INISYM returns: Found 12 space group operations
 (whereof  4 operations are pure point group operations),
 and found     1 'primitive' translations



--------------------------------------------------------------------------------------------------------




 MACROSCOPIC STATIC DIELECTRIC TENSOR (including local field effects in DFT)
 ------------------------------------------------------
          10.619787     0.000000     0.000000
           0.000000    10.619787     0.000000
          -0.000000    -0.000000     2.611074
 ------------------------------------------------------


 PIEZOELECTRIC TENSOR  for field in x, y, z        (e  Angst)
          XX          YY          ZZ          XY          YZ          ZX
  --------------------------------------------------------------------------------
  x    -0.00713     0.01024    -0.00162     0.00000     0.00013     0.00000
  y    -0.01430     0.02311     0.00197     0.00000     0.00005     0.00000
  z     0.07294     0.07294     0.06133     0.00000    -0.00000     0.00000

 PIEZOELECTRIC TENSOR  for field in x, y, z        (C/m^2)
          XX          YY          ZZ          XY          YZ          ZX
  --------------------------------------------------------------------------------
  x     0.00000     0.00000     0.00000     0.00000     0.00000     0.00000
  y     0.00000     0.00000     0.00000     0.00000     0.00000     0.00000
  z     0.00000     0.00000     0.00000     0.00000     0.00000     0.00000
 
 BORN EFFECTIVE CHARGES (in e, cummulative output)
 -------------------------------------------------
 ion    1
    1    -0.45028    -0.00036     0.00004
    2    -0.00000    -0.45106     0.00002
    3    -0.00000     0.00000   -42.38488
 ion    2
    1    -0.45585     0.00028    -0.00000
    2     0.00000    -0.45499     0.00001
    3    -0.00000    -0.00000   -16.29933
 ion    3
    1    -0.45517    -0.00029     0.00000
    2     0.00000    -0.45601    -0.00001
    3    -0.00000     0.00000    -3.34929
 ion    4
    1    -0.45517     0.00029    -0.00000
    2     0.00000    -0.45430     0.00001
    3    -0.00000     0.00000    -3.36167
 ion    5
    1    -0.45585    -0.00028     0.00000
    2    -0.00000    -0.45668    -0.00001
    3     0.00000    -0.00000   -16.31459
 ion    6
    1    -0.45028     0.00036    -0.00004
    2    -0.00000    -0.44947    -0.00000
    3     0.00000    -0.00000   -42.40862
 ion    7
    1     0.24057    -0.00141     0.00010
    2     0.00000     0.24102     0.00076
    3     0.00000     0.00000    -6.85400
 ion    8
    1     0.25904    -0.00138    -0.00005
    2     0.00000     0.25946    -0.00050
    3    -0.00000    -0.00000     3.86061
 ion    9
    1     0.25284     0.00145     0.00011
    2    -0.00000     0.25238     0.00075
    3     0.00000    -0.00000    -1.88021
 ion   10
    1     0.25321     0.00146    -0.00011
    2    -0.00000     0.25277    -0.00075
    3     0.00000    -0.00000     2.67089
 ion   11
    1     0.25278    -0.00145     0.00011
    2     0.00000     0.25323     0.00076
    3    -0.00000     0.00000     0.18784
 ion   12
    1     0.25276    -0.00146    -0.00011
    2     0.00000     0.25325    -0.00076
    3     0.00000     0.00000     1.26563
 ion   13
    1     0.25276     0.00146     0.00011
    2     0.00000     0.25228     0.00076
    3     0.00000    -0.00000     1.05465
 ion   14
    1     0.25278     0.00145    -0.00011
    2     0.00000     0.25233    -0.00076
    3    -0.00000    -0.00000     0.11510
 ion   15
    1     0.25321    -0.00146     0.00011
    2    -0.00000     0.25367     0.00075
    3    -0.00000     0.00000     3.00917
 ion   16
    1     0.25284    -0.00145    -0.00011
    2     0.00000     0.25332    -0.00075
    3     0.00000     0.00000    -1.59065
 ion   17
    1     0.25904     0.00138     0.00005
    2    -0.00000     0.25862     0.00050
    3    -0.00000     0.00000     3.60172
 ion   18
    1     0.24057     0.00141    -0.00010
    2     0.00000     0.24014    -0.00075
    3     0.00000    -0.00000    -7.14412


--------------------------------------------------------------------------------------------------------


 writing wavefunctions
     LOOP+:  cpu time 1852.6364: real time 1857.2120
    4ORBIT:  cpu time    0.0000: real time    0.0000
 BZINTS: Fermi energy:  4.453275;156.000000 electrons
         Band energy:***********;  BLOECHL correction:  0.000000

 total amount of memory used by VASP on root node   143896. kBytes
========================================================================

   base      :      30000. kBytes
   nonl-proj :      89564. kBytes
   fftplans  :       1943. kBytes
   grid      :       7351. kBytes
   one-center:        584. kBytes
   wavefun   :      14454. kBytes
 
  
  
 General timing and accounting informations for this job:
 ========================================================
  
                  Total CPU time used (sec):     1856.013
                            User time (sec):     1820.238
                          System time (sec):       35.775
                         Elapsed time (sec):     1861.904
  
                   Maximum memory used (kb):      470124.
                   Average memory used (kb):           0.
  
                          Minor page faults:     10799759
                          Major page faults:           10
                 Voluntary context switches:         6230
