unknown system                          
           1
     3.185946    0.000000    0.000000
    -1.592973    2.759110    0.000000
     0.000000    0.000000   50.000000
   W    S 
   6  12
Direct configuration=     1
   0.16666667  0.33333333  0.19250000
   0.83333333  0.66666667  0.31550000
   0.16666667  0.33333333  0.43850000
   0.83333333  0.66666667  0.56150000
   0.16666667  0.33333333  0.68450000
   0.83333333  0.66666667  0.80750000
   0.83333333  0.66666667  0.22395595
   0.83333333  0.66666667  0.16104405
   0.16666667  0.33333333  0.34695595
   0.16666667  0.33333333  0.28404405
   0.83333333  0.66666667  0.46995595
   0.83333333  0.66666667  0.40704405
   0.16666667  0.33333333  0.59295595
   0.16666667  0.33333333  0.53004405
   0.83333333  0.66666667  0.71595595
   0.83333333  0.66666667  0.65304405
   0.16666667  0.33333333  0.83895595
   0.16666667  0.33333333  0.77604405
