  12  12   0   0
  0.3662657E+02  0.3185946E-09  0.3185946E-09  0.5000000E-08  0.5000000E-15
  1.000000000000000E-004
  CAR 
 unknown system                          
     16.01411010    -77.77434331  301      1.16427164      1.00000000
    -77.774  0.0000E+00  0.0000E+00
    -77.462  0.0000E+00  0.0000E+00
    -77.149  0.0000E+00  0.0000E+00
    -76.836  0.0000E+00  0.0000E+00
    -76.524  0.0000E+00  0.0000E+00
    -76.211  0.0000E+00  0.0000E+00
    -75.899  0.0000E+00  0.0000E+00
    -75.586  0.0000E+00  0.0000E+00
    -75.273  0.0000E+00  0.0000E+00
    -74.961  0.0000E+00  0.0000E+00
    -74.648  0.0000E+00  0.0000E+00
    -74.335  0.0000E+00  0.0000E+00
    -74.023  0.0000E+00  0.0000E+00
    -73.710  0.0000E+00  0.0000E+00
    -73.398  0.0000E+00  0.8000E+01
    -73.085  0.0000E+00  0.8000E+01
    -72.772  0.0000E+00  0.8000E+01
    -72.460  0.0000E+00  0.8000E+01
    -72.147  0.0000E+00  0.8000E+01
    -71.834  0.0000E+00  0.8000E+01
    -71.522  0.0000E+00  0.8000E+01
    -71.209  0.0000E+00  0.8000E+01
    -70.897  0.0000E+00  0.8000E+01
    -70.584  0.0000E+00  0.8000E+01
    -70.271  0.0000E+00  0.8000E+01
    -69.959  0.0000E+00  0.8000E+01
    -69.646  0.0000E+00  0.8000E+01
    -69.333  0.0000E+00  0.8000E+01
    -69.021  0.0000E+00  0.8000E+01
    -68.708  0.0000E+00  0.8000E+01
    -68.395  0.0000E+00  0.8000E+01
    -68.083  0.0000E+00  0.8000E+01
    -67.770  0.0000E+00  0.8000E+01
    -67.458  0.0000E+00  0.8000E+01
    -67.145  0.0000E+00  0.8000E+01
    -66.832  0.0000E+00  0.8000E+01
    -66.520  0.0000E+00  0.8000E+01
    -66.207  0.0000E+00  0.8000E+01
    -65.894  0.0000E+00  0.8000E+01
    -65.582  0.0000E+00  0.8000E+01
    -65.269  0.0000E+00  0.8000E+01
    -64.957  0.0000E+00  0.8000E+01
    -64.644  0.0000E+00  0.8000E+01
    -64.331  0.0000E+00  0.8000E+01
    -64.019  0.0000E+00  0.8000E+01
    -63.706  0.0000E+00  0.8000E+01
    -63.393  0.0000E+00  0.8000E+01
    -63.081  0.0000E+00  0.8000E+01
    -62.768  0.0000E+00  0.8000E+01
    -62.456  0.0000E+00  0.8000E+01
    -62.143  0.0000E+00  0.8000E+01
    -61.830  0.0000E+00  0.8000E+01
    -61.518  0.0000E+00  0.8000E+01
    -61.205  0.0000E+00  0.8000E+01
    -60.892  0.0000E+00  0.8000E+01
    -60.580  0.0000E+00  0.8000E+01
    -60.267  0.0000E+00  0.8000E+01
    -59.955  0.0000E+00  0.8000E+01
    -59.642  0.0000E+00  0.8000E+01
    -59.329  0.0000E+00  0.8000E+01
    -59.017  0.0000E+00  0.8000E+01
    -58.704  0.0000E+00  0.8000E+01
    -58.391  0.0000E+00  0.8000E+01
    -58.079  0.0000E+00  0.8000E+01
    -57.766  0.0000E+00  0.8000E+01
    -57.454  0.0000E+00  0.8000E+01
    -57.141  0.0000E+00  0.8000E+01
    -56.828  0.0000E+00  0.8000E+01
    -56.516  0.0000E+00  0.8000E+01
    -56.203  0.0000E+00  0.8000E+01
    -55.890  0.0000E+00  0.8000E+01
    -55.578  0.0000E+00  0.8000E+01
    -55.265  0.0000E+00  0.8000E+01
    -54.952  0.0000E+00  0.8000E+01
    -54.640  0.0000E+00  0.8000E+01
    -54.327  0.0000E+00  0.8000E+01
    -54.015  0.0000E+00  0.8000E+01
    -53.702  0.0000E+00  0.8000E+01
    -53.389  0.0000E+00  0.8000E+01
    -53.077  0.0000E+00  0.8000E+01
    -52.764  0.0000E+00  0.8000E+01
    -52.451  0.0000E+00  0.8000E+01
    -52.139  0.0000E+00  0.8000E+01
    -51.826  0.0000E+00  0.8000E+01
    -51.514  0.0000E+00  0.8000E+01
    -51.201  0.0000E+00  0.8000E+01
    -50.888  0.0000E+00  0.8000E+01
    -50.576  0.0000E+00  0.8000E+01
    -50.263  0.0000E+00  0.8000E+01
    -49.950  0.0000E+00  0.8000E+01
    -49.638  0.0000E+00  0.8000E+01
    -49.325  0.0000E+00  0.8000E+01
    -49.013  0.0000E+00  0.8000E+01
    -48.700  0.0000E+00  0.8000E+01
    -48.387  0.0000E+00  0.8000E+01
    -48.075  0.0000E+00  0.8000E+01
    -47.762  0.0000E+00  0.8000E+01
    -47.449  0.0000E+00  0.8000E+01
    -47.137  0.0000E+00  0.8000E+01
    -46.824  0.0000E+00  0.8000E+01
    -46.512  0.0000E+00  0.8000E+01
    -46.199  0.0000E+00  0.8000E+01
    -45.886  0.0000E+00  0.8000E+01
    -45.574  0.0000E+00  0.8000E+01
    -45.261  0.0000E+00  0.8000E+01
    -44.948  0.0000E+00  0.8000E+01
    -44.636  0.0000E+00  0.8000E+01
    -44.323  0.0000E+00  0.8000E+01
    -44.011  0.0000E+00  0.8000E+01
    -43.698  0.0000E+00  0.8000E+01
    -43.385  0.0000E+00  0.8000E+01
    -43.073  0.0000E+00  0.8000E+01
    -42.760  0.0000E+00  0.8000E+01
    -42.447  0.0000E+00  0.8000E+01
    -42.135  0.0000E+00  0.8000E+01
    -41.822  0.0000E+00  0.8000E+01
    -41.509  0.0000E+00  0.8000E+01
    -41.197  0.0000E+00  0.8000E+01
    -40.884  0.0000E+00  0.8000E+01
    -40.572  0.0000E+00  0.8000E+01
    -40.259  0.0000E+00  0.8000E+01
    -39.946  0.0000E+00  0.8000E+01
    -39.634  0.0000E+00  0.8000E+01
    -39.321  0.0000E+00  0.8000E+01
    -39.008  0.0000E+00  0.8000E+01
    -38.696  0.0000E+00  0.8000E+01
    -38.383  0.0000E+00  0.8000E+01
    -38.071  0.0000E+00  0.8000E+01
    -37.758  0.3218E+02  0.1422E+02
    -37.445  0.0000E+00  0.3200E+02
    -37.133  0.0000E+00  0.3200E+02
    -36.820  0.0000E+00  0.3200E+02
    -36.507  0.0000E+00  0.3200E+02
    -36.195  0.0000E+00  0.3200E+02
    -35.882  0.0000E+00  0.3200E+02
    -35.570  0.0000E+00  0.3200E+02
    -35.257  0.0000E+00  0.3200E+02
    -34.944  0.0000E+00  0.3200E+02
    -34.632  0.0000E+00  0.3200E+02
    -34.319  0.0000E+00  0.3200E+02
    -34.006  0.0000E+00  0.3200E+02
    -33.694  0.0000E+00  0.3200E+02
    -33.381  0.0000E+00  0.3200E+02
    -33.069  0.0000E+00  0.3200E+02
    -32.756  0.0000E+00  0.3200E+02
    -32.443  0.0000E+00  0.3200E+02
    -32.131  0.0000E+00  0.3200E+02
    -31.818  0.0000E+00  0.3200E+02
    -31.505  0.0000E+00  0.3200E+02
    -31.193  0.0000E+00  0.3200E+02
    -30.880  0.0000E+00  0.3200E+02
    -30.567  0.0000E+00  0.3200E+02
    -30.255  0.0000E+00  0.3200E+02
    -29.942  0.0000E+00  0.3200E+02
    -29.630  0.0000E+00  0.3200E+02
    -29.317  0.0000E+00  0.3200E+02
    -29.004  0.0000E+00  0.3200E+02
    -28.692  0.0000E+00  0.3200E+02
    -28.379  0.0000E+00  0.3200E+02
    -28.066  0.0000E+00  0.3200E+02
    -27.754  0.0000E+00  0.3200E+02
    -27.441  0.0000E+00  0.3200E+02
    -27.129  0.0000E+00  0.3200E+02
    -26.816  0.0000E+00  0.3200E+02
    -26.503  0.0000E+00  0.3200E+02
    -26.191  0.0000E+00  0.3200E+02
    -25.878  0.0000E+00  0.3200E+02
    -25.565  0.0000E+00  0.3200E+02
    -25.253  0.0000E+00  0.3200E+02
    -24.940  0.0000E+00  0.3200E+02
    -24.628  0.0000E+00  0.3200E+02
    -24.315  0.0000E+00  0.3200E+02
    -24.002  0.0000E+00  0.3200E+02
    -23.690  0.0000E+00  0.3200E+02
    -23.377  0.0000E+00  0.3200E+02
    -23.064  0.0000E+00  0.3200E+02
    -22.752  0.0000E+00  0.3200E+02
    -22.439  0.0000E+00  0.3200E+02
    -22.127  0.0000E+00  0.3200E+02
    -21.814  0.0000E+00  0.3200E+02
    -21.501  0.0000E+00  0.3200E+02
    -21.189  0.0000E+00  0.3200E+02
    -20.876  0.0000E+00  0.3200E+02
    -20.563  0.0000E+00  0.3200E+02
    -20.251  0.0000E+00  0.3200E+02
    -19.938  0.0000E+00  0.3200E+02
    -19.626  0.0000E+00  0.3200E+02
    -19.313  0.0000E+00  0.3200E+02
    -19.000  0.0000E+00  0.3200E+02
    -18.688  0.0000E+00  0.3200E+02
    -18.375  0.0000E+00  0.3200E+02
    -18.062  0.0000E+00  0.3200E+02
    -17.750  0.0000E+00  0.3200E+02
    -17.437  0.0000E+00  0.3200E+02
    -17.124  0.0000E+00  0.3200E+02
    -16.812  0.0000E+00  0.3200E+02
    -16.499  0.0000E+00  0.3200E+02
    -16.187  0.0000E+00  0.3200E+02
    -15.874  0.0000E+00  0.3200E+02
    -15.561  0.0000E+00  0.3200E+02
    -15.249  0.0000E+00  0.3200E+02
    -14.936  0.0000E+00  0.3200E+02
    -14.623  0.0000E+00  0.3200E+02
    -14.311  0.0000E+00  0.3200E+02
    -13.998  0.1868E+01  0.3236E+02
    -13.686  0.1999E+01  0.3296E+02
    -13.373  0.2210E+01  0.3362E+02
    -13.060  0.2503E+01  0.3435E+02
    -12.748  0.3889E+01  0.3522E+02
    -12.435  0.7752E+01  0.3699E+02
    -12.122  0.1588E+02  0.4060E+02
    -11.810  0.2347E+02  0.4615E+02
    -11.497  0.0000E+00  0.4800E+02
    -11.185  0.0000E+00  0.4800E+02
    -10.872  0.0000E+00  0.4800E+02
    -10.559  0.0000E+00  0.4800E+02
    -10.247  0.0000E+00  0.4800E+02
     -9.934  0.0000E+00  0.4800E+02
     -9.621  0.0000E+00  0.4800E+02
     -9.309  0.0000E+00  0.4800E+02
     -8.996  0.0000E+00  0.4800E+02
     -8.684  0.0000E+00  0.4800E+02
     -8.371  0.0000E+00  0.4800E+02
     -8.058  0.0000E+00  0.4800E+02
     -7.746  0.0000E+00  0.4800E+02
     -7.433  0.0000E+00  0.4800E+02
     -7.120  0.0000E+00  0.4800E+02
     -6.808  0.0000E+00  0.4800E+02
     -6.495  0.0000E+00  0.4800E+02
     -6.182  0.3167E+00  0.4802E+02
     -5.870  0.2723E+01  0.4840E+02
     -5.557  0.5692E+01  0.4986E+02
     -5.245  0.1338E+02  0.5220E+02
     -4.932  0.1018E+02  0.5559E+02
     -4.619  0.8332E+01  0.5823E+02
     -4.307  0.5902E+01  0.6005E+02
     -3.994  0.6926E+01  0.6227E+02
     -3.681  0.1956E+02  0.6633E+02
     -3.369  0.4374E+01  0.6910E+02
     -3.056  0.7092E+01  0.7106E+02
     -2.744  0.1713E+02  0.7553E+02
     -2.431  0.6676E+01  0.7855E+02
     -2.118  0.7101E+01  0.8060E+02
     -1.806  0.9970E+01  0.8275E+02
     -1.493  0.1516E+02  0.8785E+02
     -1.180  0.1024E+02  0.9146E+02
     -0.868  0.6293E+01  0.9461E+02
     -0.555  0.4197E+01  0.9589E+02
     -0.243  0.1207E+02  0.9934E+02
      0.070  0.6155E+01  0.1019E+03
      0.383  0.2977E+01  0.1033E+03
      0.695  0.5596E+00  0.1038E+03
      1.008  0.2130E+00  0.1040E+03
      1.321  0.0000E+00  0.1040E+03
      1.633  0.0000E+00  0.1040E+03
      1.946  0.0000E+00  0.1040E+03
      2.258  0.5392E+00  0.1040E+03
      2.571  0.5750E+01  0.1049E+03
      2.884  0.7584E+01  0.1072E+03
      3.196  0.1942E+02  0.1114E+03
      3.509  0.1322E+02  0.1172E+03
      3.822  0.1201E+02  0.1218E+03
      4.134  0.8136E+01  0.1248E+03
      4.447  0.9831E+01  0.1277E+03
      4.759  0.5395E+01  0.1297E+03
      5.072  0.6714E+01  0.1320E+03
      5.385  0.5425E+01  0.1341E+03
      5.697  0.3794E+01  0.1354E+03
      6.010  0.4049E+01  0.1365E+03
      6.323  0.3371E+01  0.1375E+03
      6.635  0.4643E+01  0.1387E+03
      6.948  0.7222E+01  0.1402E+03
      7.261  0.6818E+01  0.1422E+03
      7.573  0.5228E+01  0.1440E+03
      7.886  0.1009E+02  0.1461E+03
      8.198  0.7770E+01  0.1486E+03
      8.511  0.8105E+01  0.1512E+03
      8.824  0.6873E+01  0.1537E+03
      9.136  0.7824E+01  0.1562E+03
      9.449  0.1132E+02  0.1593E+03
      9.762  0.1338E+02  0.1635E+03
     10.074  0.5322E+01  0.1662E+03
     10.387  0.1294E+01  0.1673E+03
     10.699  0.8157E+00  0.1676E+03
     11.012  0.5727E+00  0.1678E+03
     11.325  0.2926E+00  0.1679E+03
     11.637  0.6245E-01  0.1680E+03
     11.950  0.0000E+00  0.1680E+03
     12.263  0.0000E+00  0.1680E+03
     12.575  0.0000E+00  0.1680E+03
     12.888  0.0000E+00  0.1680E+03
     13.200  0.0000E+00  0.1680E+03
     13.513  0.0000E+00  0.1680E+03
     13.826  0.0000E+00  0.1680E+03
     14.138  0.0000E+00  0.1680E+03
     14.451  0.0000E+00  0.1680E+03
     14.764  0.0000E+00  0.1680E+03
     15.076  0.0000E+00  0.1680E+03
     15.389  0.0000E+00  0.1680E+03
     15.701  0.0000E+00  0.1680E+03
     16.014  0.0000E+00  0.1680E+03
