       N       E                     dE             d eps       ncg     rms          rms(c)
DAV:   1     0.675331764491E+03    0.67533E+03   -0.44040E+04  7560   0.728E+02
DAV:   2    -0.706620434109E+02   -0.74599E+03   -0.72949E+03  9772   0.241E+02
DAV:   3    -0.112862327031E+03   -0.42200E+02   -0.41879E+02  8736   0.594E+01
DAV:   4    -0.113713818643E+03   -0.85149E+00   -0.85113E+00  9072   0.814E+00
DAV:   5    -0.113732461360E+03   -0.18643E-01   -0.18642E-01  9128   0.954E-01    0.154E+02
DAV:   6    -0.103679605312E+03    0.10053E+02   -0.36399E+01  6440   0.168E+01    0.146E+02
DAV:   7    -0.105940839257E+03   -0.22612E+01   -0.23835E+01  7504   0.133E+01    0.346E+01
DAV:   8    -0.102591438181E+03    0.33494E+01   -0.86509E+00  7364   0.874E+00    0.359E+00
DAV:   9    -0.102627019321E+03   -0.35581E-01   -0.71388E-01  8204   0.229E+00    0.301E+00
DAV:  10    -0.102628892502E+03   -0.18732E-02   -0.37381E-02  9352   0.564E-01    0.879E-01
DAV:  11    -0.102625781097E+03    0.31114E-02   -0.10440E-02  7980   0.289E-01    0.172E-01
DAV:  12    -0.102625902929E+03   -0.12183E-03   -0.14455E-03  8512   0.973E-02    0.110E-01
DAV:  13    -0.102625901201E+03    0.17286E-05   -0.78138E-05  9324   0.269E-02    0.969E-02
DAV:  14    -0.102625914942E+03   -0.13742E-04   -0.53999E-05  8652   0.217E-02    0.238E-02
DAV:  15    -0.102625954259E+03   -0.39317E-04   -0.13846E-05  8652   0.127E-02    0.706E-02
DAV:  16    -0.102626008768E+03   -0.54509E-04   -0.80255E-06  8372   0.754E-03    0.299E-02
DAV:  17    -0.102626085758E+03   -0.76990E-04   -0.10479E-05  7448   0.765E-03    0.637E-02
DAV:  18    -0.102626118766E+03   -0.33008E-04   -0.17834E-06  8260   0.338E-03    0.220E-02
DAV:  19    -0.102626141291E+03   -0.22524E-04   -0.58682E-07  8764   0.190E-03    0.515E-03
DAV:  20    -0.102626158757E+03   -0.17467E-04   -0.20070E-07  8260   0.127E-03    0.682E-03
DAV:  21    -0.102626178348E+03   -0.19591E-04   -0.33777E-07  7336   0.127E-03    0.297E-03
DAV:  22    -0.102626179503E+03   -0.11552E-05   -0.89950E-09  7616   0.262E-04    0.971E-04
DAV:  23    -0.102626186800E+03   -0.72972E-05   -0.68726E-08  6608   0.575E-04    0.245E-03
DAV:  24    -0.102626189099E+03   -0.22989E-05   -0.22988E-08  6664   0.383E-04    0.616E-04
DAV:  25    -0.102626190015E+03   -0.91632E-06   -0.38854E-09  6104   0.203E-04    0.311E-04
DAV:  26    -0.102626190979E+03   -0.96333E-06   -0.41140E-09  5964   0.197E-04    0.186E-04
DAV:  27    -0.102626191572E+03   -0.59335E-06   -0.14763E-09  5852   0.132E-04    0.910E-05
DAV:  28    -0.102626191928E+03   -0.35618E-06   -0.60750E-10  5628   0.106E-04    0.189E-04
DAV:  29    -0.102626192032E+03   -0.10343E-06   -0.19181E-10  5236   0.561E-05    0.635E-05
DAV:  30    -0.102626192063E+03   -0.31070E-07    0.16219E-11  5292   0.352E-05    0.461E-05
DAV:  31    -0.102626192070E+03   -0.69958E-08    0.23506E-11  5488   0.178E-05
   1 F= -.10589589E+03 E0= -.10589589E+03  d E =0.000000E+00
 Linear response reoptimize wavefunctions
DAV:   1    -0.102626192071E+03    0.32697E+01   -0.73010E-12  5348   0.143E-05
DAV:   2    -0.102626192071E+03   -0.14552E-10    0.19302E-11  6104   0.405E-06
 Linear response G [H, r] |phi>, progress :
  Direction:   1
       N       E                     dE             d eps       ncg     rms
RMM:   1    -0.456636018023E+03   -0.45664E+03    0.18579E+03 15084   0.121E+02
RMM:   2    -0.442635943060E+03    0.14000E+02   -0.12689E+02 13307   0.257E+01
RMM:   3    -0.443882245490E+03   -0.12463E+01   -0.59759E+00 13804   0.558E+00
RMM:   4    -0.443929925791E+03   -0.47680E-01   -0.33300E-01 15385   0.108E+00
RMM:   5    -0.443929367744E+03    0.55805E-03   -0.20159E-02 14475   0.279E-01
RMM:   6    -0.443929508477E+03   -0.14073E-03   -0.17302E-03 16142   0.702E-02
RMM:   7    -0.443929497758E+03    0.10718E-04   -0.13163E-04 15805   0.211E-02
RMM:   8    -0.443929496679E+03    0.10793E-05   -0.18721E-05 17005   0.853E-03
RMM:   9    -0.443929496578E+03    0.10041E-06   -0.77303E-06 17054   0.528E-03
RMM:  10    -0.443929495406E+03    0.11726E-05    0.46823E-06 17052   0.462E-03
RMM:  11    -0.443929496410E+03   -0.10039E-05   -0.52775E-06 16634   0.450E-03
RMM:  12    -0.443929496804E+03   -0.39439E-06   -0.92155E-06 16444   0.448E-03
 Linear response G [H, r] |phi>, progress :
  Direction:   2
       N       E                     dE             d eps       ncg     rms
RMM:   1    -0.463161352004E+03   -0.46316E+03    0.16929E+03 14998   0.121E+02
RMM:   2    -0.460087384118E+03    0.30740E+01   -0.12826E+02 13206   0.255E+01
RMM:   3    -0.461034339140E+03   -0.94696E+00   -0.57596E+00 13782   0.550E+00
RMM:   4    -0.461089239253E+03   -0.54900E-01   -0.36691E-01 15291   0.112E+00
RMM:   5    -0.461088693628E+03    0.54563E-03   -0.19875E-02 14375   0.282E-01
RMM:   6    -0.461088924150E+03   -0.23052E-03   -0.17398E-03 16017   0.723E-02
RMM:   7    -0.461088916395E+03    0.77552E-05   -0.10260E-04 15791   0.212E-02
RMM:   8    -0.461088916648E+03   -0.25334E-06   -0.31110E-06 16944   0.837E-03
RMM:   9    -0.461088914811E+03    0.18378E-05    0.25413E-05 16981   0.497E-03
RMM:  10    -0.461088915820E+03   -0.10096E-05    0.16049E-05 16988   0.430E-03
RMM:  11    -0.461088917379E+03   -0.15584E-05    0.54916E-07 16638   0.417E-03
RMM:  12    -0.461088915107E+03    0.22716E-05    0.23294E-05 16381   0.415E-03
 Linear response G [H, r] |phi>, progress :
  Direction:   3
       N       E                     dE             d eps       ncg     rms
RMM:   1    -0.479875715487E+03   -0.47988E+03    0.18920E+03 14786   0.123E+02
RMM:   2    -0.453355927623E+03    0.26520E+02   -0.15237E+02 12841   0.257E+01
RMM:   3    -0.453470097641E+03   -0.11417E+00   -0.85358E+00 13627   0.623E+00
RMM:   4    -0.453523233138E+03   -0.53135E-01   -0.46871E-01 14810   0.120E+00
RMM:   5    -0.453522069359E+03    0.11638E-02   -0.29497E-02 14298   0.315E-01
RMM:   6    -0.453522286177E+03   -0.21682E-03   -0.20867E-03 15582   0.741E-02
RMM:   7    -0.453522280987E+03    0.51905E-05   -0.15253E-04 15571   0.222E-02
RMM:   8    -0.453522281068E+03   -0.81235E-07   -0.28263E-06 16742   0.748E-03
RMM:   9    -0.453522280898E+03    0.16977E-06    0.11541E-05 16778   0.393E-03
RMM:  10    -0.453522280892E+03    0.63239E-08    0.12667E-05 16674   0.309E-03
RMM:  11    -0.453522280938E+03   -0.45579E-07    0.12320E-05 16376   0.292E-03
RMM:  12    -0.453522281063E+03   -0.12529E-06    0.11078E-05 16106   0.289E-03
 Linear response to external field (no local field effect), progress :
  Direction:   1
       N       E                     dE             d eps       ncg     rms          rms(c)
RMM:   1    -0.725973867649E+01   -0.72597E+01   -0.46877E+01 15774   0.483E+00
RMM:   2    -0.843280763935E+01   -0.11731E+01   -0.42118E-01 12096   0.108E+00
RMM:   3    -0.844495578529E+01   -0.12148E-01   -0.32311E-02 13153   0.241E-01
RMM:   4    -0.844543430980E+01   -0.47852E-03   -0.14713E-03 14149   0.472E-02
RMM:   5    -0.844544515590E+01   -0.10846E-04   -0.52507E-05 13905   0.971E-03
RMM:   6    -0.844544554032E+01   -0.38442E-06   -0.29490E-06 13860   0.215E-03
RMM:   7    -0.844544555083E+01   -0.10513E-07   -0.14697E-07 13384   0.558E-04
RMM:   8    -0.844544555078E+01    0.55756E-10   -0.24091E-08 12575   0.175E-04
 Linear response to external field (no local field effect), progress :
  Direction:   2
       N       E                     dE             d eps       ncg     rms          rms(c)
RMM:   1    -0.712171640027E+01   -0.71217E+01   -0.44797E+01 15547   0.489E+00
RMM:   2    -0.791311657133E+01   -0.79140E+00   -0.36775E-01 12207   0.106E+00
RMM:   3    -0.792337414067E+01   -0.10258E-01   -0.27805E-02 13055   0.241E-01
RMM:   4    -0.792371546645E+01   -0.34133E-03   -0.12276E-03 14210   0.480E-02
RMM:   5    -0.792372523283E+01   -0.97664E-05   -0.50668E-05 13786   0.101E-02
RMM:   6    -0.792372552607E+01   -0.29324E-06   -0.22949E-06 13768   0.221E-03
RMM:   7    -0.792372553749E+01   -0.11412E-07   -0.16103E-07 13262   0.581E-04
RMM:   8    -0.792372553783E+01   -0.34721E-09   -0.40796E-08 12606   0.184E-04
 Linear response to external field (no local field effect), progress :
  Direction:   3
       N       E                     dE             d eps       ncg     rms          rms(c)
RMM:   1    -0.441757798269E+01   -0.44176E+01   -0.22152E+01 15451   0.445E+00
RMM:   2    -0.475603786324E+01   -0.33846E+00   -0.16409E-01 11722   0.866E-01
RMM:   3    -0.475977937626E+01   -0.37415E-02   -0.14161E-02 12656   0.200E-01
RMM:   4    -0.475992737667E+01   -0.14800E-03   -0.57632E-04 13804   0.391E-02
RMM:   5    -0.475993176154E+01   -0.43849E-05   -0.27941E-05 13244   0.849E-03
RMM:   6    -0.475993188728E+01   -0.12574E-06   -0.13312E-06 13433   0.190E-03
RMM:   7    -0.475993189425E+01   -0.69762E-08   -0.11860E-07 12796   0.501E-04
RMM:   8    -0.475993189438E+01   -0.12308E-09   -0.36529E-08 11809   0.166E-04
 Linear response to external field, progress :
  Direction:   1
       N       E                     dE             d eps       ncg     rms          rms(c)
RMM:   1    -0.719092527146E+01   -0.71909E+01   -0.45839E+01 38051   0.482E+00
RMM:   2    -0.817301829891E+01   -0.98209E+00   -0.39356E-01 29677   0.106E+00    0.510E+00
RMM:   3    -0.790681818094E+01    0.26620E+00   -0.29154E-01 28201   0.143E+00    0.280E+00
RMM:   4    -0.806687916892E+01   -0.16006E+00   -0.22249E-01 26972   0.134E+00    0.746E-01
RMM:   5    -0.813217165417E+01   -0.65292E-01   -0.79672E-03 27593   0.272E-01    0.654E-02
RMM:   6    -0.813768048453E+01   -0.55088E-02   -0.10826E-03 31171   0.518E-02    0.320E-02
RMM:   7    -0.813895137705E+01   -0.12709E-02    0.57748E-04 29827   0.210E-02    0.109E-02
RMM:   8    -0.813991567499E+01   -0.96430E-03   -0.51260E-04 31239   0.510E-03    0.549E-03
RMM:   9    -0.814034335531E+01   -0.42768E-03    0.26237E-04 28586   0.277E-03    0.116E-03
RMM:  10    -0.814045991300E+01   -0.11656E-03   -0.21571E-05 30219   0.875E-04    0.414E-04
RMM:  11    -0.814048162729E+01   -0.21714E-04   -0.14744E-05 30298   0.362E-04    0.149E-04
RMM:  12    -0.814048714436E+01   -0.55171E-05    0.37142E-06 28125   0.182E-04    0.523E-05
RMM:  13    -0.814048807819E+01   -0.93383E-06   -0.22318E-08 26781   0.949E-05    0.324E-05
RMM:  14    -0.814048795759E+01    0.12059E-06    0.10384E-07 20634   0.802E-05    0.539E-06
 Linear response to external field, progress :
  Direction:   2
       N       E                     dE             d eps       ncg     rms          rms(c)
RMM:   1    -0.719914075734E+01   -0.71991E+01   -0.45921E+01 38280   0.482E+00
RMM:   2    -0.817303482068E+01   -0.97389E+00   -0.39779E-01 29722   0.106E+00    0.510E+00
RMM:   3    -0.790755310983E+01    0.26548E+00   -0.29106E-01 28519   0.143E+00    0.280E+00
RMM:   4    -0.806776351987E+01   -0.16021E+00   -0.22830E-01 27163   0.133E+00    0.745E-01
RMM:   5    -0.813118051282E+01   -0.63417E-01   -0.56220E-03 27796   0.270E-01    0.737E-02
RMM:   6    -0.813773526124E+01   -0.65547E-02   -0.43661E-03 31380   0.526E-02    0.422E-02
RMM:   7    -0.813814537251E+01   -0.41011E-03    0.99224E-04 32014   0.153E-02    0.220E-02
RMM:   8    -0.813958707199E+01   -0.14417E-02   -0.87264E-05 27205   0.121E-02    0.649E-03
RMM:   9    -0.814030834640E+01   -0.72127E-03    0.11659E-04 28657   0.364E-03    0.175E-03
RMM:  10    -0.814046040663E+01   -0.15206E-03   -0.78916E-05 30084   0.117E-03    0.564E-04
RMM:  11    -0.814046460148E+01   -0.41948E-05    0.40599E-05 32012   0.346E-04    0.266E-04
RMM:  12    -0.814048691317E+01   -0.22312E-04   -0.16943E-05 27269   0.224E-04    0.743E-05
RMM:  13    -0.814048721924E+01   -0.30606E-06   -0.39950E-07 27353   0.121E-04    0.363E-05
RMM:  14    -0.814048731193E+01   -0.92690E-07   -0.71899E-07 22311   0.830E-05    0.129E-05
RMM:  15    -0.814048719048E+01    0.12144E-06   -0.10123E-06 19294   0.797E-05    0.461E-06
 Linear response to external field, progress :
  Direction:   3
       N       E                     dE             d eps       ncg     rms          rms(c)
RMM:   1    -0.441757798268E+01   -0.44176E+01   -0.22152E+01 15451   0.445E+00
RMM:   2    -0.475603786325E+01   -0.33846E+00   -0.16409E-01 11722   0.866E-01    0.475E+00
RMM:   3    -0.134902295483E+01    0.34070E+01   -0.27208E+00 11039   0.311E+00    0.215E+00
RMM:   4    -0.110799074436E+01    0.24103E+00    0.21065E-01 10891   0.923E-01    0.893E-01
RMM:   5    -0.903852249511E+00    0.20414E+00    0.42036E-01 11057   0.680E-01    0.424E-01
RMM:   6    -0.874614166178E+00    0.29238E-01    0.39432E-01 11551   0.234E-01    0.284E-01
RMM:   7    -0.836603823158E+00    0.38010E-01    0.37266E-01 11082   0.212E-01    0.173E-01
RMM:   8    -0.840416842160E+00   -0.38130E-02    0.25952E-01 11219   0.124E-01    0.747E-02
RMM:   9    -0.846636296797E+00   -0.62195E-02    0.16631E-01 10942   0.757E-02    0.419E-02
RMM:  10    -0.853269351896E+00   -0.66331E-02    0.93903E-02 10857   0.326E-02    0.307E-02
RMM:  11    -0.858093962706E+00   -0.48246E-02    0.47535E-02  9923   0.280E-02    0.110E-02
RMM:  12    -0.860452957537E+00   -0.23590E-02    0.26013E-02 10882   0.155E-02    0.841E-03
RMM:  13    -0.862040628474E+00   -0.15877E-02    0.13418E-02 10519   0.113E-02    0.508E-03
RMM:  14    -0.862877313609E+00   -0.83669E-03    0.64845E-03 10706   0.645E-03    0.317E-03
RMM:  15    -0.863195981969E+00   -0.31867E-03    0.38282E-03 10814   0.442E-03    0.134E-03
RMM:  16    -0.863386015212E+00   -0.19003E-03    0.20558E-03 10469   0.455E-03    0.101E-03
RMM:  17    -0.863471993989E+00   -0.85979E-04    0.10602E-03 10989   0.193E-03    0.452E-04
RMM:  18    -0.863511429712E+00   -0.39436E-04    0.53216E-04 10989   0.122E-03    0.204E-04
RMM:  19    -0.863533356989E+00   -0.21927E-04    0.27410E-04 11321   0.411E-04    0.139E-04
RMM:  20    -0.863548096578E+00   -0.14740E-04    0.99313E-05 10311   0.414E-04    0.678E-05
RMM:  21    -0.863554065759E+00   -0.59692E-05    0.35875E-05  9821   0.271E-04    0.291E-05
RMM:  22    -0.863556363401E+00   -0.22976E-05    0.18911E-05 10062   0.948E-05    0.144E-05
RMM:  23    -0.863558600529E+00   -0.22371E-05    0.41378E-07  8778   0.667E-05    0.530E-06
