 vasp.5.4.1 24Jun15 (build Apr 13 2016 13:07:19) complex                        
  
 executed on           IFC91_ompi date 2019.09.13  22:43:13
 running on   28 total cores
 distrk:  each k-point on   28 cores,    1 groups
 distr:  one band on NCORES_PER_BAND=   1 cores,   28 groups


--------------------------------------------------------------------------------------------------------


 INCAR:
 POTCAR:    PAW_PBE W_sv_GW 23Mar2010             
 POTCAR:    PAW_PBE S_GW 19Mar2012                

 ----------------------------------------------------------------------------- 
|                                                                             |
|           W    W    AA    RRRRR   N    N  II  N    N   GGGG   !!!           |
|           W    W   A  A   R    R  NN   N  II  NN   N  G    G  !!!           |
|           W    W  A    A  R    R  N N  N  II  N N  N  G       !!!           |
|           W WW W  AAAAAA  RRRRR   N  N N  II  N  N N  G  GGG   !            |
|           WW  WW  A    A  R   R   N   NN  II  N   NN  G    G                |
|           W    W  A    A  R    R  N    N  II  N    N   GGGG   !!!           |
|                                                                             |
|      For optimal performance we recommend to set                            |
|        NCORE= 4 - approx SQRT( number of cores)                             |
|      NCORE specifies how many cores store one orbital (NPAR=cpu/NCORE).     |
|      This setting can  greatly improve the performance of VASP for DFT.     |
|      The default, NPAR=number of cores might be grossly inefficient         |
|      on modern multi-core architectures or massively parallel machines.     |
|      Do your own testing !!!!                                               |
|      Unfortunately you need to use the default for GW and RPA calculations. |
|      (for HF NCORE is supported but not extensively tested yet)             |
|                                                                             |
 ----------------------------------------------------------------------------- 

 POTCAR:    PAW_PBE W_sv_GW 23Mar2010             
   VRHFIN =W: 5p6s5d                                                            
   LEXCH  = PE                                                                  
   EATOM  =  1863.8917 eV,  136.9922 Ry                                         
                                                                                
   TITEL  = PAW_PBE W_sv_GW 23Mar2010                                           
   LULTRA =        F    use ultrasoft PP ?                                      
   IUNSCR =        1    unscreen: 0-lin 1-nonlin 2-no                           
   RPACOR =    1.500    partial core radius                                     
   POMASS =  183.850; ZVAL   =   14.000    mass and valenz                      
   RCORE  =    2.300    outmost cutoff radius                                   
   RWIGS  =    2.600; RWIGS  =    1.376    wigner-seitz radius (au A)           
   ENMAX  =  317.132; ENMIN  =  237.849 eV                                      
   RCLOC  =    1.609    cutoff for local pot                                    
   LCOR   =        T    correct aug charges                                     
   LPAW   =        T    paw PP                                                  
   EAUG   =  807.757                                                            
   DEXC   =    0.000                                                            
   RMAX   =    2.349    core radius for proj-oper                               
   RAUG   =    1.300    factor for augmentation sphere                          
   RDEP   =    2.382    radius for radial grids                                 
   RDEPT  =    1.832    core radius for aug-charge                              
                                                                                
   Atomic configuration                                                         
   14 entries                                                                   
     n  l   j            E        occ.                                          
     1  0  0.50    -69464.1497   2.0000                                         
     2  0  0.50    -11984.7400   2.0000                                         
     2  1  1.50    -10478.3405   6.0000                                         
     3  0  0.50     -2757.5605   2.0000                                         
     3  1  1.50     -2311.6706   6.0000                                         
     3  2  2.50     -1799.5973  10.0000                                         
     4  0  0.50      -566.1609   2.0000                                         
     4  1  1.50      -419.9482   6.0000                                         
     4  2  2.50      -234.8191  10.0000                                         
     4  3  3.50       -29.7363  14.0000                                         
     5  0  0.50       -75.5905   2.0000                                         
     5  1  1.50       -39.9756   6.0000                                         
     5  2  2.50        -2.4479   6.0000                                         
     5  3  2.50        -1.3606   0.0000                                         
   Description                                                                  
     l       E           TYP  RCUT    TYP  RCUT                                 
     0    -75.5905419     23  1.500                                             
     0    -76.9511245     23  1.500                                             
     0    108.8466080     23  1.500                                             
     1    -39.9756040     23  1.800                                             
     1     68.0291300     23  1.800                                             
     2     -2.4478587     23  2.150                                             
     2     -0.0030619     23  2.150                                             
     3      4.0817478     23  2.300                                             
  local pseudopotential read in
  partial core-charges read in
  partial kinetic energy density read in
  kinetic energy density of atom read in
  atomic valenz-charges read in
  non local Contribution for L=           0  read in
    real space projection operators read in
  non local Contribution for L=           0  read in
    real space projection operators read in
  non local Contribution for L=           0  read in
    real space projection operators read in
  non local Contribution for L=           1  read in
    real space projection operators read in
  non local Contribution for L=           1  read in
    real space projection operators read in
  non local Contribution for L=           2  read in
    real space projection operators read in
  non local Contribution for L=           2  read in
    real space projection operators read in
  non local Contribution for L=           3  read in
    real space projection operators read in
    PAW grid and wavefunctions read in
 
   number of l-projection  operators is LMAX  =           8
   number of lm-projection operators is LMMAX =          26
 
 POTCAR:    PAW_PBE S_GW 19Mar2012                
   VRHFIN =S : s2p4                                                             
   LEXCH  = PE                                                                  
   EATOM  =   276.8230 eV,   20.3459 Ry                                         
                                                                                
   TITEL  = PAW_PBE S_GW 19Mar2012                                              
   LULTRA =        F    use ultrasoft PP ?                                      
   IUNSCR =        1    unscreen: 0-lin 1-nonlin 2-no                           
   RPACOR =    1.400    partial core radius                                     
   POMASS =   32.066; ZVAL   =    6.000    mass and valenz                      
   RCORE  =    1.900    outmost cutoff radius                                   
   RWIGS  =    1.900; RWIGS  =    1.005    wigner-seitz radius (au A)           
   ENMAX  =  258.689; ENMIN  =  194.016 eV                                      
   ICORE  =        3    local potential                                         
   LCOR   =        T    correct aug charges                                     
   LPAW   =        T    paw PP                                                  
   EAUG   =  488.319                                                            
   DEXC   =    0.000                                                            
   RMAX   =    1.942    core radius for proj-oper                               
   RAUG   =    1.300    factor for augmentation sphere                          
   RDEP   =    1.954    radius for radial grids                                 
   RDEPT  =    1.900    core radius for aug-charge                              
                                                                                
   Atomic configuration                                                         
    7 entries                                                                   
     n  l   j            E        occ.                                          
     1  0  0.50     -2405.8406   2.0000                                         
     2  0  0.50      -211.7007   2.0000                                         
     2  1  1.50      -156.4958   6.0000                                         
     3  0  0.50       -17.2562   2.0000                                         
     3  1  0.50        -7.0085   4.0000                                         
     3  2  1.50        -8.1635   0.0000                                         
     4  3  2.50        -1.3606   0.0000                                         
   Description                                                                  
     l       E           TYP  RCUT    TYP  RCUT                                 
     0    -17.2561639     23  1.700                                             
     0     88.4378690     23  1.900                                             
     1     -7.0085399     23  1.900                                             
     1     88.4378690     23  1.900                                             
     2    -10.8846608     23  1.900                                             
     2     54.4233040     23  1.900                                             
     3     27.2116520     23  1.800                                             
  local pseudopotential read in
  partial core-charges read in
  partial kinetic energy density read in
  kinetic energy density of atom read in
  atomic valenz-charges read in
  non local Contribution for L=           0  read in
    real space projection operators read in
  non local Contribution for L=           0  read in
    real space projection operators read in
  non local Contribution for L=           1  read in
    real space projection operators read in
  non local Contribution for L=           1  read in
    real space projection operators read in
  non local Contribution for L=           2  read in
    real space projection operators read in
  non local Contribution for L=           2  read in
    real space projection operators read in
    PAW grid and wavefunctions read in
 
   number of l-projection  operators is LMAX  =           6
   number of lm-projection operators is LMMAX =          18
 
  PAW_PBE W_sv_GW 23Mar2010             :
 energy of atom  1       EATOM=-1863.8917
 kinetic energy error for atom=    0.2291 (will be added to EATOM!!)
  PAW_PBE S_GW 19Mar2012                :
 energy of atom  2       EATOM= -276.8230
 kinetic energy error for atom=    0.0074 (will be added to EATOM!!)
 
 
 POSCAR:  W  S                                   
  positions in cartesian coordinates
  No initial velocities read in
 exchange correlation table for  LEXCH =        8
   RHO(1)=    0.500       N(1)  =     2000
   RHO(2)=  100.500       N(2)  =     4000
 


--------------------------------------------------------------------------------------------------------


 ion  position               nearest neighbor table
   1  0.167  0.333  0.316-   5 2.42   6 2.42   5 2.42   6 2.42   5 2.42   6 2.42
   2  0.833  0.667  0.438-   8 2.42   8 2.42   8 2.42   7 2.42   7 2.42   7 2.42
   3  0.167  0.333  0.562-   9 2.42   9 2.42   9 2.42  10 2.42  10 2.42  10 2.42
   4  0.833  0.667  0.684-  11 2.42  12 2.42  11 2.42  12 2.42  11 2.42  12 2.42
   5  0.833  0.667  0.347-   1 2.42   1 2.42   1 2.42
   6  0.833  0.667  0.284-   1 2.42   1 2.42   1 2.42
   7  0.167  0.333  0.470-   2 2.42   2 2.42   2 2.42
   8  0.167  0.333  0.407-   2 2.42   2 2.42   2 2.42
   9  0.833  0.667  0.593-   3 2.42   3 2.42   3 2.42
  10  0.833  0.667  0.530-   3 2.42   3 2.42   3 2.42
  11  0.167  0.333  0.716-   4 2.42   4 2.42   4 2.42
  12  0.167  0.333  0.653-   4 2.42   4 2.42   4 2.42
 
  LATTYP: Found a hexagonal cell.
 ALAT       =     3.1859459497
 C/A-ratio  =    15.6939260082
  
  Lattice vectors:
  
 A1 = (   3.1859459497,   0.0000000000,   0.0000000000)
 A2 = (  -1.5929729748,   2.7591101275,   0.0000000000)
 A3 = (   0.0000000000,   0.0000000000,  50.0000000000)


Analysis of symmetry for initial positions (statically):
=====================================================================
 Subroutine PRICEL returns:
 Original cell was already a primitive cell.
 

 Routine SETGRP: Setting up the symmetry group for a 
 hexagonal supercell.


 Subroutine GETGRP returns: Found 12 space group operations
 (whereof  4 operations were pure point group operations)
 out of a pool of 24 trial point group operations.


The static configuration has the point symmetry C_2h.
 The point group associated with its full space group is D_3d.


Analysis of symmetry for dynamics (positions and initial velocities):
=====================================================================
 Subroutine PRICEL returns:
 Original cell was already a primitive cell.
 

 Routine SETGRP: Setting up the symmetry group for a 
 hexagonal supercell.


 Subroutine GETGRP returns: Found 12 space group operations
 (whereof  4 operations were pure point group operations)
 out of a pool of 24 trial point group operations.


The dynamic configuration has the point symmetry C_2h.
 The point group associated with its full space group is D_3d.


 Subroutine INISYM returns: Found 12 space group operations
 (whereof  4 operations are pure point group operations),
 and found     1 'primitive' translations

 
 
 KPOINTS: KPOINTS created by Atomic Simulation Env

Automatic generation of k-mesh.
Space group operators:
 irot       det(A)        alpha          n_x          n_y          n_z        tau_x        tau_y        tau_z
    1     1.000000     0.000000     1.000000     0.000000     0.000000     0.000000     0.000000     0.000000
    2    -1.000000     0.000000     1.000000     0.000000     0.000000     0.000000     0.000000     0.000000
    3     1.000000   180.000000     1.000000     0.000000     0.000000     0.000000     0.000000     0.000000
    4    -1.000000   180.000000     1.000000     0.000000     0.000000     0.000000     0.000000     0.000000
    5     1.000000   120.000000     0.000000     0.000000    -1.000000     0.500000     0.500000     0.000000
    6    -1.000000   120.000000     0.000000     0.000000    -1.000000     0.500000     0.500000     0.000000
    7     1.000000   120.000000     0.000000     0.000000     1.000000     0.000000     0.500000     0.000000
    8    -1.000000   120.000000     0.000000     0.000000     1.000000     0.000000     0.500000     0.000000
    9     1.000000   180.000000     0.500000    -0.866025     0.000000     0.000000     0.500000     0.000000
   10    -1.000000   180.000000     0.500000    -0.866025     0.000000     0.000000     0.500000     0.000000
   11     1.000000   180.000000    -0.500000    -0.866025     0.000000     0.500000     0.500000     0.000000
   12    -1.000000   180.000000    -0.500000    -0.866025     0.000000     0.500000     0.500000     0.000000
 
 Subroutine IBZKPT returns following result:
 ===========================================
 
 Found     37 irreducible k-points:
 
 Following reciprocal coordinates:
            Coordinates               Weight
  0.000000  0.000000  0.000000      1.000000
  0.055556  0.000000  0.000000      6.000000
  0.111111  0.000000  0.000000      6.000000
  0.166667  0.000000  0.000000      6.000000
  0.222222  0.000000  0.000000      6.000000
  0.277778  0.000000  0.000000      6.000000
  0.333333  0.000000  0.000000      6.000000
  0.388889  0.000000  0.000000      6.000000
  0.444444  0.000000  0.000000      6.000000
  0.500000  0.000000  0.000000      3.000000
  0.055556  0.055556  0.000000      6.000000
  0.111111  0.055556  0.000000     12.000000
  0.166667  0.055556  0.000000     12.000000
  0.222222  0.055556  0.000000     12.000000
  0.277778  0.055556  0.000000     12.000000
  0.333333  0.055556  0.000000     12.000000
  0.388889  0.055556  0.000000     12.000000
  0.444444  0.055556  0.000000     12.000000
  0.111111  0.111111  0.000000      6.000000
  0.166667  0.111111  0.000000     12.000000
  0.222222  0.111111  0.000000     12.000000
  0.277778  0.111111  0.000000     12.000000
  0.333333  0.111111  0.000000     12.000000
  0.388889  0.111111  0.000000     12.000000
  0.444444  0.111111  0.000000      6.000000
  0.166667  0.166667  0.000000      6.000000
  0.222222  0.166667  0.000000     12.000000
  0.277778  0.166667  0.000000     12.000000
  0.333333  0.166667  0.000000     12.000000
  0.388889  0.166667  0.000000     12.000000
  0.222222  0.222222  0.000000      6.000000
  0.277778  0.222222  0.000000     12.000000
  0.333333  0.222222  0.000000     12.000000
  0.388889  0.222222  0.000000      6.000000
  0.277778  0.277778  0.000000      6.000000
  0.333333  0.277778  0.000000     12.000000
  0.333333  0.333333  0.000000      2.000000
 
 Following cartesian coordinates:
            Coordinates               Weight
  0.000000  0.000000  0.000000      1.000000
  0.017438  0.010068  0.000000      6.000000
  0.034875  0.020135  0.000000      6.000000
  0.052313  0.030203  0.000000      6.000000
  0.069751  0.040271  0.000000      6.000000
  0.087188  0.050338  0.000000      6.000000
  0.104626  0.060406  0.000000      6.000000
  0.122064  0.070474  0.000000      6.000000
  0.139502  0.080541  0.000000      6.000000
  0.156939  0.090609  0.000000      3.000000
  0.017438  0.030203  0.000000      6.000000
  0.034875  0.040271  0.000000     12.000000
  0.052313  0.050338  0.000000     12.000000
  0.069751  0.060406  0.000000     12.000000
  0.087188  0.070474  0.000000     12.000000
  0.104626  0.080541  0.000000     12.000000
  0.122064  0.090609  0.000000     12.000000
  0.139502  0.100677  0.000000     12.000000
  0.034875  0.060406  0.000000      6.000000
  0.052313  0.070474  0.000000     12.000000
  0.069751  0.080541  0.000000     12.000000
  0.087188  0.090609  0.000000     12.000000
  0.104626  0.100677  0.000000     12.000000
  0.122064  0.110744  0.000000     12.000000
  0.139502  0.120812  0.000000      6.000000
  0.052313  0.090609  0.000000      6.000000
  0.069751  0.100677  0.000000     12.000000
  0.087188  0.110744  0.000000     12.000000
  0.104626  0.120812  0.000000     12.000000
  0.122064  0.130880  0.000000     12.000000
  0.069751  0.120812  0.000000      6.000000
  0.087188  0.130880  0.000000     12.000000
  0.104626  0.140947  0.000000     12.000000
  0.122064  0.151015  0.000000      6.000000
  0.087188  0.151015  0.000000      6.000000
  0.104626  0.161083  0.000000     12.000000
  0.104626  0.181218  0.000000      2.000000
 
 TETIRR: Found    169 inequivalent tetrahedra from     1944
 
 Subroutine IBZKPT_HF returns following result:
 ==============================================
 
 Found    324 k-points in 1st BZ
 the following    324 k-points will be used (e.g. in the exchange kernel)
 Following reciprocal coordinates:   # in IRBZ
  0.000000  0.000000  0.000000    0.00308642   1 t-inv F
  0.055556  0.000000  0.000000    0.00308642   2 t-inv F
  0.111111  0.000000  0.000000    0.00308642   3 t-inv F
  0.166667  0.000000  0.000000    0.00308642   4 t-inv F
  0.222222  0.000000  0.000000    0.00308642   5 t-inv F
  0.277778  0.000000  0.000000    0.00308642   6 t-inv F
  0.333333  0.000000  0.000000    0.00308642   7 t-inv F
  0.388889  0.000000  0.000000    0.00308642   8 t-inv F
  0.444444  0.000000  0.000000    0.00308642   9 t-inv F
  0.500000  0.000000  0.000000    0.00308642  10 t-inv F
  0.055556  0.055556  0.000000    0.00308642  11 t-inv F
  0.111111  0.055556  0.000000    0.00308642  12 t-inv F
  0.166667  0.055556  0.000000    0.00308642  13 t-inv F
  0.222222  0.055556  0.000000    0.00308642  14 t-inv F
  0.277778  0.055556  0.000000    0.00308642  15 t-inv F
  0.333333  0.055556  0.000000    0.00308642  16 t-inv F
  0.388889  0.055556  0.000000    0.00308642  17 t-inv F
  0.444444  0.055556  0.000000    0.00308642  18 t-inv F
  0.111111  0.111111  0.000000    0.00308642  19 t-inv F
  0.166667  0.111111  0.000000    0.00308642  20 t-inv F
  0.222222  0.111111  0.000000    0.00308642  21 t-inv F
  0.277778  0.111111  0.000000    0.00308642  22 t-inv F
  0.333333  0.111111  0.000000    0.00308642  23 t-inv F
  0.388889  0.111111  0.000000    0.00308642  24 t-inv F
  0.444444  0.111111  0.000000    0.00308642  25 t-inv F
  0.166667  0.166667  0.000000    0.00308642  26 t-inv F
  0.222222  0.166667  0.000000    0.00308642  27 t-inv F
  0.277778  0.166667  0.000000    0.00308642  28 t-inv F
  0.333333  0.166667  0.000000    0.00308642  29 t-inv F
  0.388889  0.166667  0.000000    0.00308642  30 t-inv F
  0.222222  0.222222  0.000000    0.00308642  31 t-inv F
  0.277778  0.222222  0.000000    0.00308642  32 t-inv F
  0.333333  0.222222  0.000000    0.00308642  33 t-inv F
  0.388889  0.222222  0.000000    0.00308642  34 t-inv F
  0.277778  0.277778  0.000000    0.00308642  35 t-inv F
  0.333333  0.277778  0.000000    0.00308642  36 t-inv F
  0.333333  0.333333  0.000000    0.00308642  37 t-inv F
 -0.055556 -0.000000 -0.000000    0.00308642   2 t-inv F
  0.055556 -0.055556 -0.000000    0.00308642   2 t-inv F
 -0.055556  0.055556  0.000000    0.00308642   2 t-inv F
  0.000000 -0.055556  0.000000    0.00308642   2 t-inv F
 -0.000000  0.055556 -0.000000    0.00308642   2 t-inv F
 -0.111111 -0.000000 -0.000000    0.00308642   3 t-inv F
  0.111111 -0.111111 -0.000000    0.00308642   3 t-inv F
 -0.111111  0.111111  0.000000    0.00308642   3 t-inv F
  0.000000 -0.111111  0.000000    0.00308642   3 t-inv F
 -0.000000  0.111111 -0.000000    0.00308642   3 t-inv F
 -0.166667 -0.000000 -0.000000    0.00308642   4 t-inv F
  0.166667 -0.166667 -0.000000    0.00308642   4 t-inv F
 -0.166667  0.166667  0.000000    0.00308642   4 t-inv F
  0.000000 -0.166667  0.000000    0.00308642   4 t-inv F
 -0.000000  0.166667 -0.000000    0.00308642   4 t-inv F
 -0.222222 -0.000000 -0.000000    0.00308642   5 t-inv F
  0.222222 -0.222222 -0.000000    0.00308642   5 t-inv F
 -0.222222  0.222222  0.000000    0.00308642   5 t-inv F
  0.000000 -0.222222  0.000000    0.00308642   5 t-inv F
 -0.000000  0.222222 -0.000000    0.00308642   5 t-inv F
 -0.277778 -0.000000 -0.000000    0.00308642   6 t-inv F
  0.277778 -0.277778 -0.000000    0.00308642   6 t-inv F
 -0.277778  0.277778  0.000000    0.00308642   6 t-inv F
  0.000000 -0.277778  0.000000    0.00308642   6 t-inv F
 -0.000000  0.277778 -0.000000    0.00308642   6 t-inv F
 -0.333333 -0.000000 -0.000000    0.00308642   7 t-inv F
  0.333333 -0.333333 -0.000000    0.00308642   7 t-inv F
 -0.333333  0.333333  0.000000    0.00308642   7 t-inv F
  0.000000 -0.333333  0.000000    0.00308642   7 t-inv F
 -0.000000  0.333333 -0.000000    0.00308642   7 t-inv F
 -0.388889 -0.000000 -0.000000    0.00308642   8 t-inv F
  0.388889 -0.388889 -0.000000    0.00308642   8 t-inv F
 -0.388889  0.388889  0.000000    0.00308642   8 t-inv F
  0.000000 -0.388889  0.000000    0.00308642   8 t-inv F
 -0.000000  0.388889 -0.000000    0.00308642   8 t-inv F
 -0.444444 -0.000000 -0.000000    0.00308642   9 t-inv F
  0.444444 -0.444444 -0.000000    0.00308642   9 t-inv F
 -0.444444  0.444444  0.000000    0.00308642   9 t-inv F
  0.000000 -0.444444  0.000000    0.00308642   9 t-inv F
 -0.000000  0.444444 -0.000000    0.00308642   9 t-inv F
  0.500000 -0.500000 -0.000000    0.00308642  10 t-inv F
  0.000000 -0.500000  0.000000    0.00308642  10 t-inv F
 -0.055556 -0.055556 -0.000000    0.00308642  11 t-inv F
  0.055556 -0.111111 -0.000000    0.00308642  11 t-inv F
 -0.055556  0.111111  0.000000    0.00308642  11 t-inv F
 -0.111111  0.055556  0.000000    0.00308642  11 t-inv F
  0.111111 -0.055556 -0.000000    0.00308642  11 t-inv F
 -0.111111 -0.055556 -0.000000    0.00308642  12 t-inv F
  0.111111 -0.166667 -0.000000    0.00308642  12 t-inv F
 -0.111111  0.166667  0.000000    0.00308642  12 t-inv F
 -0.166667  0.111111  0.000000    0.00308642  12 t-inv F
  0.166667 -0.111111 -0.000000    0.00308642  12 t-inv F
  0.055556 -0.166667  0.000000    0.00308642  12 t-inv F
 -0.055556  0.166667 -0.000000    0.00308642  12 t-inv F
 -0.166667  0.055556 -0.000000    0.00308642  12 t-inv F
  0.166667 -0.055556  0.000000    0.00308642  12 t-inv F
  0.055556  0.111111 -0.000000    0.00308642  12 t-inv F
 -0.055556 -0.111111  0.000000    0.00308642  12 t-inv F
 -0.166667 -0.055556 -0.000000    0.00308642  13 t-inv F
  0.166667 -0.222222 -0.000000    0.00308642  13 t-inv F
 -0.166667  0.222222  0.000000    0.00308642  13 t-inv F
 -0.222222  0.166667  0.000000    0.00308642  13 t-inv F
  0.222222 -0.166667 -0.000000    0.00308642  13 t-inv F
  0.055556 -0.222222  0.000000    0.00308642  13 t-inv F
 -0.055556  0.222222 -0.000000    0.00308642  13 t-inv F
 -0.222222  0.055556 -0.000000    0.00308642  13 t-inv F
  0.222222 -0.055556  0.000000    0.00308642  13 t-inv F
  0.055556  0.166667 -0.000000    0.00308642  13 t-inv F
 -0.055556 -0.166667  0.000000    0.00308642  13 t-inv F
 -0.222222 -0.055556 -0.000000    0.00308642  14 t-inv F
  0.222222 -0.277778 -0.000000    0.00308642  14 t-inv F
 -0.222222  0.277778  0.000000    0.00308642  14 t-inv F
 -0.277778  0.222222  0.000000    0.00308642  14 t-inv F
  0.277778 -0.222222 -0.000000    0.00308642  14 t-inv F
  0.055556 -0.277778  0.000000    0.00308642  14 t-inv F
 -0.055556  0.277778 -0.000000    0.00308642  14 t-inv F
 -0.277778  0.055556 -0.000000    0.00308642  14 t-inv F
  0.277778 -0.055556  0.000000    0.00308642  14 t-inv F
  0.055556  0.222222 -0.000000    0.00308642  14 t-inv F
 -0.055556 -0.222222  0.000000    0.00308642  14 t-inv F
 -0.277778 -0.055556 -0.000000    0.00308642  15 t-inv F
  0.277778 -0.333333 -0.000000    0.00308642  15 t-inv F
 -0.277778  0.333333  0.000000    0.00308642  15 t-inv F
 -0.333333  0.277778  0.000000    0.00308642  15 t-inv F
  0.333333 -0.277778 -0.000000    0.00308642  15 t-inv F
  0.055556 -0.333333  0.000000    0.00308642  15 t-inv F
 -0.055556  0.333333 -0.000000    0.00308642  15 t-inv F
 -0.333333  0.055556 -0.000000    0.00308642  15 t-inv F
  0.333333 -0.055556  0.000000    0.00308642  15 t-inv F
  0.055556  0.277778 -0.000000    0.00308642  15 t-inv F
 -0.055556 -0.277778  0.000000    0.00308642  15 t-inv F
 -0.333333 -0.055556 -0.000000    0.00308642  16 t-inv F
  0.333333 -0.388889 -0.000000    0.00308642  16 t-inv F
 -0.333333  0.388889  0.000000    0.00308642  16 t-inv F
 -0.388889  0.333333  0.000000    0.00308642  16 t-inv F
  0.388889 -0.333333 -0.000000    0.00308642  16 t-inv F
  0.055556 -0.388889  0.000000    0.00308642  16 t-inv F
 -0.055556  0.388889 -0.000000    0.00308642  16 t-inv F
 -0.388889  0.055556 -0.000000    0.00308642  16 t-inv F
  0.388889 -0.055556  0.000000    0.00308642  16 t-inv F
  0.055556  0.333333 -0.000000    0.00308642  16 t-inv F
 -0.055556 -0.333333  0.000000    0.00308642  16 t-inv F
 -0.388889 -0.055556 -0.000000    0.00308642  17 t-inv F
  0.388889 -0.444444 -0.000000    0.00308642  17 t-inv F
 -0.388889  0.444444  0.000000    0.00308642  17 t-inv F
 -0.444444  0.388889  0.000000    0.00308642  17 t-inv F
  0.444444 -0.388889 -0.000000    0.00308642  17 t-inv F
  0.055556 -0.444444  0.000000    0.00308642  17 t-inv F
 -0.055556  0.444444 -0.000000    0.00308642  17 t-inv F
 -0.444444  0.055556 -0.000000    0.00308642  17 t-inv F
  0.444444 -0.055556  0.000000    0.00308642  17 t-inv F
  0.055556  0.388889 -0.000000    0.00308642  17 t-inv F
 -0.055556 -0.388889  0.000000    0.00308642  17 t-inv F
 -0.444444 -0.055556 -0.000000    0.00308642  18 t-inv F
  0.444444 -0.500000 -0.000000    0.00308642  18 t-inv F
 -0.444444  0.500000  0.000000    0.00308642  18 t-inv F
 -0.500000  0.444444  0.000000    0.00308642  18 t-inv F
  0.500000 -0.444444 -0.000000    0.00308642  18 t-inv F
  0.055556 -0.500000  0.000000    0.00308642  18 t-inv F
 -0.055556  0.500000 -0.000000    0.00308642  18 t-inv F
 -0.500000  0.055556 -0.000000    0.00308642  18 t-inv F
  0.500000 -0.055556  0.000000    0.00308642  18 t-inv F
  0.055556  0.444444 -0.000000    0.00308642  18 t-inv F
 -0.055556 -0.444444  0.000000    0.00308642  18 t-inv F
 -0.111111 -0.111111 -0.000000    0.00308642  19 t-inv F
  0.111111 -0.222222 -0.000000    0.00308642  19 t-inv F
 -0.111111  0.222222  0.000000    0.00308642  19 t-inv F
 -0.222222  0.111111  0.000000    0.00308642  19 t-inv F
  0.222222 -0.111111 -0.000000    0.00308642  19 t-inv F
 -0.166667 -0.111111 -0.000000    0.00308642  20 t-inv F
  0.166667 -0.277778 -0.000000    0.00308642  20 t-inv F
 -0.166667  0.277778  0.000000    0.00308642  20 t-inv F
 -0.277778  0.166667  0.000000    0.00308642  20 t-inv F
  0.277778 -0.166667 -0.000000    0.00308642  20 t-inv F
  0.111111 -0.277778  0.000000    0.00308642  20 t-inv F
 -0.111111  0.277778 -0.000000    0.00308642  20 t-inv F
 -0.277778  0.111111 -0.000000    0.00308642  20 t-inv F
  0.277778 -0.111111  0.000000    0.00308642  20 t-inv F
  0.111111  0.166667 -0.000000    0.00308642  20 t-inv F
 -0.111111 -0.166667  0.000000    0.00308642  20 t-inv F
 -0.222222 -0.111111 -0.000000    0.00308642  21 t-inv F
  0.222222 -0.333333 -0.000000    0.00308642  21 t-inv F
 -0.222222  0.333333  0.000000    0.00308642  21 t-inv F
 -0.333333  0.222222  0.000000    0.00308642  21 t-inv F
  0.333333 -0.222222 -0.000000    0.00308642  21 t-inv F
  0.111111 -0.333333  0.000000    0.00308642  21 t-inv F
 -0.111111  0.333333 -0.000000    0.00308642  21 t-inv F
 -0.333333  0.111111 -0.000000    0.00308642  21 t-inv F
  0.333333 -0.111111  0.000000    0.00308642  21 t-inv F
  0.111111  0.222222 -0.000000    0.00308642  21 t-inv F
 -0.111111 -0.222222  0.000000    0.00308642  21 t-inv F
 -0.277778 -0.111111 -0.000000    0.00308642  22 t-inv F
  0.277778 -0.388889 -0.000000    0.00308642  22 t-inv F
 -0.277778  0.388889  0.000000    0.00308642  22 t-inv F
 -0.388889  0.277778  0.000000    0.00308642  22 t-inv F
  0.388889 -0.277778 -0.000000    0.00308642  22 t-inv F
  0.111111 -0.388889  0.000000    0.00308642  22 t-inv F
 -0.111111  0.388889 -0.000000    0.00308642  22 t-inv F
 -0.388889  0.111111 -0.000000    0.00308642  22 t-inv F
  0.388889 -0.111111  0.000000    0.00308642  22 t-inv F
  0.111111  0.277778 -0.000000    0.00308642  22 t-inv F
 -0.111111 -0.277778  0.000000    0.00308642  22 t-inv F
 -0.333333 -0.111111 -0.000000    0.00308642  23 t-inv F
  0.333333 -0.444444 -0.000000    0.00308642  23 t-inv F
 -0.333333  0.444444  0.000000    0.00308642  23 t-inv F
 -0.444444  0.333333  0.000000    0.00308642  23 t-inv F
  0.444444 -0.333333 -0.000000    0.00308642  23 t-inv F
  0.111111 -0.444444  0.000000    0.00308642  23 t-inv F
 -0.111111  0.444444 -0.000000    0.00308642  23 t-inv F
 -0.444444  0.111111 -0.000000    0.00308642  23 t-inv F
  0.444444 -0.111111  0.000000    0.00308642  23 t-inv F
  0.111111  0.333333 -0.000000    0.00308642  23 t-inv F
 -0.111111 -0.333333  0.000000    0.00308642  23 t-inv F
 -0.388889 -0.111111 -0.000000    0.00308642  24 t-inv F
  0.388889 -0.500000 -0.000000    0.00308642  24 t-inv F
 -0.388889  0.500000  0.000000    0.00308642  24 t-inv F
 -0.500000  0.388889  0.000000    0.00308642  24 t-inv F
  0.500000 -0.388889 -0.000000    0.00308642  24 t-inv F
  0.111111 -0.500000  0.000000    0.00308642  24 t-inv F
 -0.111111  0.500000 -0.000000    0.00308642  24 t-inv F
 -0.500000  0.111111 -0.000000    0.00308642  24 t-inv F
  0.500000 -0.111111  0.000000    0.00308642  24 t-inv F
  0.111111  0.388889 -0.000000    0.00308642  24 t-inv F
 -0.111111 -0.388889  0.000000    0.00308642  24 t-inv F
 -0.444444 -0.111111 -0.000000    0.00308642  25 t-inv F
  0.444444 -0.555556 -0.000000    0.00308642  25 t-inv F
 -0.444444  0.555556  0.000000    0.00308642  25 t-inv F
  0.111111 -0.555556  0.000000    0.00308642  25 t-inv F
 -0.111111  0.555556 -0.000000    0.00308642  25 t-inv F
 -0.166667 -0.166667 -0.000000    0.00308642  26 t-inv F
  0.166667 -0.333333 -0.000000    0.00308642  26 t-inv F
 -0.166667  0.333333  0.000000    0.00308642  26 t-inv F
 -0.333333  0.166667  0.000000    0.00308642  26 t-inv F
  0.333333 -0.166667 -0.000000    0.00308642  26 t-inv F
 -0.222222 -0.166667 -0.000000    0.00308642  27 t-inv F
  0.222222 -0.388889 -0.000000    0.00308642  27 t-inv F
 -0.222222  0.388889  0.000000    0.00308642  27 t-inv F
 -0.388889  0.222222  0.000000    0.00308642  27 t-inv F
  0.388889 -0.222222 -0.000000    0.00308642  27 t-inv F
  0.166667 -0.388889  0.000000    0.00308642  27 t-inv F
 -0.166667  0.388889 -0.000000    0.00308642  27 t-inv F
 -0.388889  0.166667 -0.000000    0.00308642  27 t-inv F
  0.388889 -0.166667  0.000000    0.00308642  27 t-inv F
  0.166667  0.222222 -0.000000    0.00308642  27 t-inv F
 -0.166667 -0.222222  0.000000    0.00308642  27 t-inv F
 -0.277778 -0.166667 -0.000000    0.00308642  28 t-inv F
  0.277778 -0.444444 -0.000000    0.00308642  28 t-inv F
 -0.277778  0.444444  0.000000    0.00308642  28 t-inv F
 -0.444444  0.277778  0.000000    0.00308642  28 t-inv F
  0.444444 -0.277778 -0.000000    0.00308642  28 t-inv F
  0.166667 -0.444444  0.000000    0.00308642  28 t-inv F
 -0.166667  0.444444 -0.000000    0.00308642  28 t-inv F
 -0.444444  0.166667 -0.000000    0.00308642  28 t-inv F
  0.444444 -0.166667  0.000000    0.00308642  28 t-inv F
  0.166667  0.277778 -0.000000    0.00308642  28 t-inv F
 -0.166667 -0.277778  0.000000    0.00308642  28 t-inv F
 -0.333333 -0.166667 -0.000000    0.00308642  29 t-inv F
  0.333333 -0.500000 -0.000000    0.00308642  29 t-inv F
 -0.333333  0.500000  0.000000    0.00308642  29 t-inv F
 -0.500000  0.333333  0.000000    0.00308642  29 t-inv F
  0.500000 -0.333333 -0.000000    0.00308642  29 t-inv F
  0.166667 -0.500000  0.000000    0.00308642  29 t-inv F
 -0.166667  0.500000 -0.000000    0.00308642  29 t-inv F
 -0.500000  0.166667 -0.000000    0.00308642  29 t-inv F
  0.500000 -0.166667  0.000000    0.00308642  29 t-inv F
  0.166667  0.333333 -0.000000    0.00308642  29 t-inv F
 -0.166667 -0.333333  0.000000    0.00308642  29 t-inv F
 -0.388889 -0.166667 -0.000000    0.00308642  30 t-inv F
  0.388889 -0.555556 -0.000000    0.00308642  30 t-inv F
 -0.388889  0.555556  0.000000    0.00308642  30 t-inv F
 -0.555556  0.388889  0.000000    0.00308642  30 t-inv F
  0.555556 -0.388889 -0.000000    0.00308642  30 t-inv F
  0.166667 -0.555556  0.000000    0.00308642  30 t-inv F
 -0.166667  0.555556 -0.000000    0.00308642  30 t-inv F
 -0.555556  0.166667 -0.000000    0.00308642  30 t-inv F
  0.555556 -0.166667  0.000000    0.00308642  30 t-inv F
  0.166667  0.388889 -0.000000    0.00308642  30 t-inv F
 -0.166667 -0.388889  0.000000    0.00308642  30 t-inv F
 -0.222222 -0.222222 -0.000000    0.00308642  31 t-inv F
  0.222222 -0.444444 -0.000000    0.00308642  31 t-inv F
 -0.222222  0.444444  0.000000    0.00308642  31 t-inv F
 -0.444444  0.222222  0.000000    0.00308642  31 t-inv F
  0.444444 -0.222222 -0.000000    0.00308642  31 t-inv F
 -0.277778 -0.222222 -0.000000    0.00308642  32 t-inv F
  0.277778 -0.500000 -0.000000    0.00308642  32 t-inv F
 -0.277778  0.500000  0.000000    0.00308642  32 t-inv F
 -0.500000  0.277778  0.000000    0.00308642  32 t-inv F
  0.500000 -0.277778 -0.000000    0.00308642  32 t-inv F
  0.222222 -0.500000  0.000000    0.00308642  32 t-inv F
 -0.222222  0.500000 -0.000000    0.00308642  32 t-inv F
 -0.500000  0.222222 -0.000000    0.00308642  32 t-inv F
  0.500000 -0.222222  0.000000    0.00308642  32 t-inv F
  0.222222  0.277778 -0.000000    0.00308642  32 t-inv F
 -0.222222 -0.277778  0.000000    0.00308642  32 t-inv F
 -0.333333 -0.222222 -0.000000    0.00308642  33 t-inv F
  0.333333 -0.555556 -0.000000    0.00308642  33 t-inv F
 -0.333333  0.555556  0.000000    0.00308642  33 t-inv F
 -0.555556  0.333333  0.000000    0.00308642  33 t-inv F
  0.555556 -0.333333 -0.000000    0.00308642  33 t-inv F
  0.222222 -0.555556  0.000000    0.00308642  33 t-inv F
 -0.222222  0.555556 -0.000000    0.00308642  33 t-inv F
 -0.555556  0.222222 -0.000000    0.00308642  33 t-inv F
  0.555556 -0.222222  0.000000    0.00308642  33 t-inv F
  0.222222  0.333333 -0.000000    0.00308642  33 t-inv F
 -0.222222 -0.333333  0.000000    0.00308642  33 t-inv F
 -0.388889 -0.222222 -0.000000    0.00308642  34 t-inv F
  0.388889 -0.611111 -0.000000    0.00308642  34 t-inv F
 -0.388889  0.611111  0.000000    0.00308642  34 t-inv F
  0.222222 -0.611111  0.000000    0.00308642  34 t-inv F
 -0.222222  0.611111 -0.000000    0.00308642  34 t-inv F
 -0.277778 -0.277778 -0.000000    0.00308642  35 t-inv F
  0.277778 -0.555556 -0.000000    0.00308642  35 t-inv F
 -0.277778  0.555556  0.000000    0.00308642  35 t-inv F
 -0.555556  0.277778  0.000000    0.00308642  35 t-inv F
  0.555556 -0.277778 -0.000000    0.00308642  35 t-inv F
 -0.333333 -0.277778 -0.000000    0.00308642  36 t-inv F
  0.333333 -0.611111 -0.000000    0.00308642  36 t-inv F
 -0.333333  0.611111  0.000000    0.00308642  36 t-inv F
 -0.611111  0.333333  0.000000    0.00308642  36 t-inv F
  0.611111 -0.333333 -0.000000    0.00308642  36 t-inv F
  0.277778 -0.611111  0.000000    0.00308642  36 t-inv F
 -0.277778  0.611111 -0.000000    0.00308642  36 t-inv F
 -0.611111  0.277778 -0.000000    0.00308642  36 t-inv F
  0.611111 -0.277778  0.000000    0.00308642  36 t-inv F
  0.277778  0.333333 -0.000000    0.00308642  36 t-inv F
 -0.277778 -0.333333  0.000000    0.00308642  36 t-inv F
 -0.333333 -0.333333 -0.000000    0.00308642  37 t-inv F


--------------------------------------------------------------------------------------------------------




 Dimension of arrays:
   k-points           NKPTS =     37   k-points in BZ     NKDIM =     37   number of bands    NBANDS=     84
   number of dos      NEDOS =    301   number of ions     NIONS =     12
   non local maximal  LDIM  =      8   non local SUM 2l+1 LMDIM =     26
   total plane-waves  NPLWV = 117600
   max r-space proj   IRMAX =      1   max aug-charges    IRDMAX=  10412
   dimension x,y,z NGX =    20 NGY =   20 NGZ =  294
   dimension x,y,z NGXF=    40 NGYF=   40 NGZF=  588
   support grid    NGXF=    40 NGYF=   40 NGZF=  588
   ions per type =               4   8
 NGX,Y,Z   is equivalent  to a cutoff of  10.44, 10.44,  9.78 a.u.
 NGXF,Y,Z  is equivalent  to a cutoff of  20.87, 20.87, 19.55 a.u.


 I would recommend the setting:
   dimension x,y,z NGX =    19 NGY =   19 NGZ =  290
 SYSTEM =  unknown system                          
 POSCAR =   W  S                                   

 Startparameter for this run:
   NWRITE =      2    write-flag & timer
   PREC   = accura    normal or accurate (medium, high low for compatibility)
   ISTART =      0    job   : 0-new  1-cont  2-samecut
   ICHARG =      2    charge: 1-file 2-atom 10-const
   ISPIN  =      1    spin polarized calculation?
   LNONCOLLINEAR =      F non collinear calculations
   LSORBIT =      F    spin-orbit coupling
   INIWAV =      1    electr: 0-lowe 1-rand  2-diag
   LASPH  =      F    aspherical Exc in radial PAW
   METAGGA=      F    non-selfconsistent MetaGGA calc.

 Electronic Relaxation 1
   ENCUT  =  317.1 eV  23.31 Ry    4.83 a.u.   4.63  4.63 72.60*2*pi/ulx,y,z
   ENINI  =  317.1     initial cutoff
   ENAUG  =  807.8 eV  augmentation charge cutoff
   NELM   =     60;   NELMIN=  5; NELMDL= -5     # of ELM steps 
   EDIFF  = 0.1E-07   stopping-criterion for ELM
   LREAL  =      F    real-space projection
   NLSPLINE    = F    spline interpolate recip. space projectors
   LCOMPAT=      F    compatible to vasp.4.4
   GGA_COMPAT  = T    GGA compatible to vasp.4.4-vasp.4.6
   LMAXPAW     = -100 max onsite density
   LMAXMIX     =    2 max onsite mixed and CHGCAR
   VOSKOWN=      0    Vosko Wilk Nusair interpolation
   ROPT   =    0.00000   0.00000
 Ionic relaxation
   EDIFFG = 0.1E-06   stopping-criterion for IOM
   NSW    =      0    number of steps for IOM
   NBLOCK =      1;   KBLOCK =      1    inner block; outer block 
   IBRION =     -1    ionic relax: 0-MD 1-quasi-New 2-CG
   NFREE  =      0    steps in history (QN), initial steepest desc. (CG)
   ISIF   =      2    stress and relaxation
   IWAVPR =     10    prediction:  0-non 1-charg 2-wave 3-comb
   ISYM   =      2    0-nonsym 1-usesym 2-fastsym
   LCORR  =      T    Harris-Foulkes like correction to forces

   POTIM  = 0.5000    time-step for ionic-motion
   TEIN   =    0.0    initial temperature
   TEBEG  =    0.0;   TEEND  =   0.0 temperature during run
   SMASS  =  -3.00    Nose mass-parameter (am)
   estimated Nose-frequenzy (Omega)   =  0.10E-29 period in steps =****** mass=  -0.232E-27a.u.
   SCALEE = 1.0000    scale energy and forces
   NPACO  =    256;   APACO  = 16.0  distance and # of slots for P.C.
   PSTRESS=    0.0 pullay stress

  Mass of Ions in am
   POMASS = 183.85 32.07
  Ionic Valenz
   ZVAL   =  14.00  6.00
  Atomic Wigner-Seitz radii
   RWIGS  =  -1.00 -1.00
  virtual crystal weights 
   VCA    =   1.00  1.00
   NELECT =     104.0000    total number of electrons
   NUPDOWN=      -1.0000    fix difference up-down

 DOS related values:
   EMIN   =  10.00;   EMAX   =-10.00  energy-range for DOS
   EFERMI =   0.00
   ISMEAR =    -5;   SIGMA  =   0.01  broadening in eV -4-tet -1-fermi 0-gaus

 Electronic relaxation 2 (details)
   IALGO  =     38    algorithm
   LDIAG  =      T    sub-space diagonalisation (order eigenvalues)
   LSUBROT=      F    optimize rotation matrix (better conditioning)
   TURBO    =      0    0=normal 1=particle mesh
   IRESTART =      0    0=no restart 2=restart with 2 vectors
   NREBOOT  =      0    no. of reboots
   NMIN     =      0    reboot dimension
   EREF     =   0.00    reference energy to select bands
   IMIX   =      4    mixing-type and parameters
     AMIX     =   0.40;   BMIX     =  1.00
     AMIX_MAG =   1.60;   BMIX_MAG =  1.00
     AMIN     =   0.10
     WC   =   100.;   INIMIX=   1;  MIXPRE=   1;  MAXMIX= -45

 Intra band minimization:
   WEIMIN = 0.0000     energy-eigenvalue tresh-hold
   EBREAK =  0.30E-10  absolut break condition
   DEPER  =   0.30     relativ break condition  

   TIME   =   0.40     timestep for ELM

  volume/ion in A,a.u.               =      36.63       247.17
  Fermi-wavevector in a.u.,A,eV,Ry     =   1.012574  1.913488 13.950138  1.025306
  Thomas-Fermi vector in A             =   2.145692
 
 Write flags
   LWAVE  =      T    write WAVECAR
   LCHARG =      T    write CHGCAR
   LVTOT  =      F    write LOCPOT, total local potential
   LVHAR  =      F    write LOCPOT, Hartree potential only
   LELF   =      F    write electronic localiz. function (ELF)
   LORBIT =      0    0 simple, 1 ext, 2 COOP (PROOUT)


 Dipole corrections
   LMONO  =      F    monopole corrections only (constant potential shift)
   LDIPOL =      F    correct potential (dipole corrections)
   IDIPOL =      0    1-x, 2-y, 3-z, 4-all directions 
   EPSILON=  1.0000000 bulk dielectric constant

 Exchange correlation treatment:
   GGA     =    PE    GGA type
   LEXCH   =     8    internal setting for exchange type
   VOSKOWN=      0    Vosko Wilk Nusair interpolation
   LHFCALC =     F    Hartree Fock is set to
   LHFONE  =     F    Hartree Fock one center treatment
   AEXX    =    0.0000 exact exchange contribution

 Linear response parameters
   LEPSILON=     T    determine dielectric tensor
   LRPA    =     F    only Hartree local field effects (RPA)
   LNABLA  =     F    use nabla operator in PAW spheres
   LVEL    =     F    velocity operator in full k-point grid
   LINTERFAST=   F  fast interpolation
   KINTER  =     0    interpolate to denser k-point grid
   CSHIFT  =0.1000    complex shift for real part using Kramers Kronig
   OMEGAMAX=  -1.0    maximum frequency
   DEG_THRESHOLD= 0.2000000E-02 threshold for treating states as degnerate
   RTIME   =    0.100 relaxation time in fs

 Orbital magnetization related:
   ORBITALMAG=     F  switch on orbital magnetization
   LCHIMAG   =     F  perturbation theory with respect to B field
   DQ        =  0.001000  dq finite difference perturbation B field



--------------------------------------------------------------------------------------------------------


 Static calculation
 charge density and potential will be updated during run
 non-spin polarized calculation
 Variant of blocked Davidson
 Davidson routine will perform the subspace rotation
 perform sub-space diagonalisation
    after iterative eigenvector-optimisation
 modified Broyden-mixing scheme, WC =      100.0
 initial mixing is a Kerker type mixing with AMIX =  0.4000 and BMIX =      1.0000
 Hartree-type preconditioning will be used
 using additional bands           32
 reciprocal scheme for non local part
 use partial core corrections
 calculate Harris-corrections to forces 
   (improved forces if not selfconsistent)
 use gradient corrections 
 use of overlap-Matrix (Vanderbilt PP)
 Fermi weights with tetrahedron method with Bloechl corrections


--------------------------------------------------------------------------------------------------------


  energy-cutoff  :      317.13
  volume of cell :      439.52
      direct lattice vectors                 reciprocal lattice vectors
     3.185945950  0.000000000  0.000000000     0.313878520  0.181217848  0.000000000
    -1.592972975  2.759110127  0.000000000     0.000000000  0.362435696  0.000000000
     0.000000000  0.000000000 50.000000000     0.000000000  0.000000000  0.020000000

  length of vectors
     3.185945950  3.185945950 50.000000000     0.362435696  0.362435696  0.020000000


 
 k-points in units of 2pi/SCALE and weight: KPOINTS created by Atomic Simulation Env
   0.00000000  0.00000000  0.00000000       0.003
   0.01743770  0.01006766  0.00000000       0.019
   0.03487539  0.02013532  0.00000000       0.019
   0.05231309  0.03020297  0.00000000       0.019
   0.06975078  0.04027063  0.00000000       0.019
   0.08718848  0.05033829  0.00000000       0.019
   0.10462617  0.06040595  0.00000000       0.019
   0.12206387  0.07047361  0.00000000       0.019
   0.13950156  0.08054127  0.00000000       0.019
   0.15693926  0.09060892  0.00000000       0.009
   0.01743770  0.03020297  0.00000000       0.019
   0.03487539  0.04027063  0.00000000       0.037
   0.05231309  0.05033829  0.00000000       0.037
   0.06975078  0.06040595  0.00000000       0.037
   0.08718848  0.07047361  0.00000000       0.037
   0.10462617  0.08054127  0.00000000       0.037
   0.12206387  0.09060892  0.00000000       0.037
   0.13950156  0.10067658  0.00000000       0.037
   0.03487539  0.06040595  0.00000000       0.019
   0.05231309  0.07047361  0.00000000       0.037
   0.06975078  0.08054127  0.00000000       0.037
   0.08718848  0.09060892  0.00000000       0.037
   0.10462617  0.10067658  0.00000000       0.037
   0.12206387  0.11074424  0.00000000       0.037
   0.13950156  0.12081190  0.00000000       0.019
   0.05231309  0.09060892  0.00000000       0.019
   0.06975078  0.10067658  0.00000000       0.037
   0.08718848  0.11074424  0.00000000       0.037
   0.10462617  0.12081190  0.00000000       0.037
   0.12206387  0.13087956  0.00000000       0.037
   0.06975078  0.12081190  0.00000000       0.019
   0.08718848  0.13087956  0.00000000       0.037
   0.10462617  0.14094722  0.00000000       0.037
   0.12206387  0.15101487  0.00000000       0.019
   0.08718848  0.15101487  0.00000000       0.019
   0.10462617  0.16108253  0.00000000       0.037
   0.10462617  0.18121785  0.00000000       0.006
 
 k-points in reciprocal lattice and weights: KPOINTS created by Atomic Simulation Env
   0.00000000  0.00000000  0.00000000       0.003
   0.05555556  0.00000000  0.00000000       0.019
   0.11111111  0.00000000  0.00000000       0.019
   0.16666667  0.00000000  0.00000000       0.019
   0.22222222  0.00000000  0.00000000       0.019
   0.27777778  0.00000000  0.00000000       0.019
   0.33333333  0.00000000  0.00000000       0.019
   0.38888889  0.00000000  0.00000000       0.019
   0.44444444  0.00000000  0.00000000       0.019
   0.50000000  0.00000000  0.00000000       0.009
   0.05555556  0.05555556  0.00000000       0.019
   0.11111111  0.05555556  0.00000000       0.037
   0.16666667  0.05555556  0.00000000       0.037
   0.22222222  0.05555556  0.00000000       0.037
   0.27777778  0.05555556  0.00000000       0.037
   0.33333333  0.05555556  0.00000000       0.037
   0.38888889  0.05555556  0.00000000       0.037
   0.44444444  0.05555556  0.00000000       0.037
   0.11111111  0.11111111  0.00000000       0.019
   0.16666667  0.11111111  0.00000000       0.037
   0.22222222  0.11111111  0.00000000       0.037
   0.27777778  0.11111111  0.00000000       0.037
   0.33333333  0.11111111  0.00000000       0.037
   0.38888889  0.11111111  0.00000000       0.037
   0.44444444  0.11111111  0.00000000       0.019
   0.16666667  0.16666667  0.00000000       0.019
   0.22222222  0.16666667  0.00000000       0.037
   0.27777778  0.16666667  0.00000000       0.037
   0.33333333  0.16666667  0.00000000       0.037
   0.38888889  0.16666667  0.00000000       0.037
   0.22222222  0.22222222  0.00000000       0.019
   0.27777778  0.22222222  0.00000000       0.037
   0.33333333  0.22222222  0.00000000       0.037
   0.38888889  0.22222222  0.00000000       0.019
   0.27777778  0.27777778  0.00000000       0.019
   0.33333333  0.27777778  0.00000000       0.037
   0.33333333  0.33333333  0.00000000       0.006
 
 position of ions in fractional coordinates (direct lattice) 
   0.16666667  0.33333333  0.31550000
   0.83333333  0.66666667  0.43850000
   0.16666667  0.33333333  0.56150000
   0.83333333  0.66666667  0.68450000
   0.83333333  0.66666667  0.34695595
   0.83333333  0.66666667  0.28404405
   0.16666667  0.33333333  0.46995595
   0.16666667  0.33333333  0.40704405
   0.83333333  0.66666667  0.59295595
   0.83333333  0.66666667  0.53004405
   0.16666667  0.33333333  0.71595595
   0.16666667  0.33333333  0.65304405
 
 position of ions in cartesian coordinates  (Angst):
  -0.00000000  0.91970338 15.77500000
   1.59297297  1.83940675 21.92500000
  -0.00000000  0.91970338 28.07500000
   1.59297297  1.83940675 34.22500000
   1.59297297  1.83940675 17.34779744
   1.59297297  1.83940675 14.20220256
  -0.00000000  0.91970338 23.49779744
  -0.00000000  0.91970338 20.35220256
   1.59297297  1.83940675 29.64779744
   1.59297297  1.83940675 26.50220256
  -0.00000000  0.91970338 35.79779744
  -0.00000000  0.91970338 32.65220256
 


--------------------------------------------------------------------------------------------------------


 k-point  1 :   0.0000 0.0000 0.0000  plane waves:    5665
 k-point  2 :   0.0556 0.0000 0.0000  plane waves:    5678
 k-point  3 :   0.1111 0.0000 0.0000  plane waves:    5694
 k-point  4 :   0.1667 0.0000 0.0000  plane waves:    5688
 k-point  5 :   0.2222 0.0000 0.0000  plane waves:    5678
 k-point  6 :   0.2778 0.0000 0.0000  plane waves:    5680
 k-point  7 :   0.3333 0.0000 0.0000  plane waves:    5664
 k-point  8 :   0.3889 0.0000 0.0000  plane waves:    5618
 k-point  9 :   0.4444 0.0000 0.0000  plane waves:    5614
 k-point 10 :   0.5000 0.0000 0.0000  plane waves:    5640
 k-point 11 :   0.0556 0.0556 0.0000  plane waves:    5667
 k-point 12 :   0.1111 0.0556 0.0000  plane waves:    5690
 k-point 13 :   0.1667 0.0556 0.0000  plane waves:    5692
 k-point 14 :   0.2222 0.0556 0.0000  plane waves:    5676
 k-point 15 :   0.2778 0.0556 0.0000  plane waves:    5662
 k-point 16 :   0.3333 0.0556 0.0000  plane waves:    5638
 k-point 17 :   0.3889 0.0556 0.0000  plane waves:    5616
 k-point 18 :   0.4444 0.0556 0.0000  plane waves:    5629
 k-point 19 :   0.1111 0.1111 0.0000  plane waves:    5683
 k-point 20 :   0.1667 0.1111 0.0000  plane waves:    5684
 k-point 21 :   0.2222 0.1111 0.0000  plane waves:    5654
 k-point 22 :   0.2778 0.1111 0.0000  plane waves:    5640
 k-point 23 :   0.3333 0.1111 0.0000  plane waves:    5632
 k-point 24 :   0.3889 0.1111 0.0000  plane waves:    5617
 k-point 25 :   0.4444 0.1111 0.0000  plane waves:    5622
 k-point 26 :   0.1667 0.1667 0.0000  plane waves:    5641
 k-point 27 :   0.2222 0.1667 0.0000  plane waves:    5630
 k-point 28 :   0.2778 0.1667 0.0000  plane waves:    5640
 k-point 29 :   0.3333 0.1667 0.0000  plane waves:    5611
 k-point 30 :   0.3889 0.1667 0.0000  plane waves:    5600
 k-point 31 :   0.2222 0.2222 0.0000  plane waves:    5625
 k-point 32 :   0.2778 0.2222 0.0000  plane waves:    5604
 k-point 33 :   0.3333 0.2222 0.0000  plane waves:    5590
 k-point 34 :   0.3889 0.2222 0.0000  plane waves:    5584
 k-point 35 :   0.2778 0.2778 0.0000  plane waves:    5569
 k-point 36 :   0.3333 0.2778 0.0000  plane waves:    5542
 k-point 37 :   0.3333 0.3333 0.0000  plane waves:    5520

 maximum and minimum number of plane-waves per node :      5694     5520

 maximum number of plane-waves:      5694
 maximum index in each direction: 
   IXMAX=    4   IYMAX=    4   IZMAX=   72
   IXMIN=   -5   IYMIN=   -4   IZMIN=  -72

 NGX is ok and might be reduce to  20
 NGY is ok and might be reduce to  18
 NGZ is ok and might be reduce to 290

 serial   3D FFT for wavefunctions
 parallel 3D FFT for charge:
    minimum data exchange during FFTs selected (reduces bandwidth)


 total amount of memory used by VASP on root node   139290. kBytes
========================================================================

   base      :      30000. kBytes
   nonl-proj :      89015. kBytes
   fftplans  :       1943. kBytes
   grid      :       7351. kBytes
   one-center:        389. kBytes
   wavefun   :      10592. kBytes
 
     INWAV:  cpu time    0.0000: real time    0.0000
 Broyden mixing: mesh for mixing (old mesh)
   NGX =  9   NGY =  9   NGZ =145
  (NGX  = 40   NGY  = 40   NGZ  =588)
  gives a total of  11745 points

 initial charge density was supplied:
 charge density of overlapping atoms calculated
 number of electron     104.0000000 magnetization 
 keeping initial charge density in first step


--------------------------------------------------------------------------------------------------------


 Maximum index for augmentation-charges          835 (set IRDMAX)


--------------------------------------------------------------------------------------------------------


 First call to EWALD:  gamma=   0.233
 Maximum number of real-space cells 7x 7x 1
 Maximum number of reciprocal cells 1x 1x15

 FEWALD executed in parallel
    FEWALD:  cpu time    0.0010: real time    0.0013


----------------------------------------- Iteration    1(   1)  ---------------------------------------


    POTLOK:  cpu time    0.0290: real time    0.0305
    SETDIJ:  cpu time    0.0060: real time    0.0060
     EDDAV:  cpu time    5.7891: real time    5.7943
 BZINTS: Fermi energy: 11.014622;104.000000 electrons
         Band energy:-986.277966;  BLOECHL correction: -0.043759
       DOS:  cpu time    0.0260: real time    0.0257
    --------------------------------------------
      LOOP:  cpu time    5.8521: real time    5.8588

 eigenvalue-minimisations  :  7560
 total energy-change (2. order) : 0.6753318E+03  (-0.4404014E+04)
 number of electron     104.0000000 magnetization 
 augmentation part      104.0000000 magnetization 

 Free energy of the ion-electron system (eV)
  ---------------------------------------------------
  alpha Z        PSCENC =       187.11571126
  Ewald energy   TEWEN  =    117773.69822227
  -Hartree energ DENC   =   -126426.91289780
  -exchange      EXHF   =         0.00000000
  -V(xc)+E(xc)   XCENC  =        -4.71683430
  PAW double counting   =      8007.66886860    -7544.41874093
  entropy T*S    EENTRO =         0.00000000
  eigenvalues    EBANDS =      -986.27796557
  atomic energy  EATOM  =      9669.17540095
  Solvation  Ediel_sol  =         0.00000000
  ---------------------------------------------------
  free energy    TOTEN  =       675.33176449 eV

  energy without entropy =      675.33176449  energy(sigma->0) =      675.33176449


--------------------------------------------------------------------------------------------------------




----------------------------------------- Iteration    1(   2)  ---------------------------------------


     EDDAV:  cpu time    7.3389: real time    7.3435
 BZINTS: Fermi energy:  3.209888;104.000000 electrons
         Band energy:***********;  BLOECHL correction:  0.000000
       DOS:  cpu time    0.0060: real time    0.0057
    --------------------------------------------
      LOOP:  cpu time    7.3459: real time    7.3521

 eigenvalue-minimisations  :  9772
 total energy-change (2. order) :-0.7459938E+03  (-0.7294916E+03)
 number of electron     104.0000000 magnetization 
 augmentation part      104.0000000 magnetization 

 Free energy of the ion-electron system (eV)
  ---------------------------------------------------
  alpha Z        PSCENC =       187.11571126
  Ewald energy   TEWEN  =    117773.69822227
  -Hartree energ DENC   =   -126426.91289780
  -exchange      EXHF   =         0.00000000
  -V(xc)+E(xc)   XCENC  =        -4.71683430
  PAW double counting   =      8007.66886860    -7544.41874093
  entropy T*S    EENTRO =         0.00000000
  eigenvalues    EBANDS =     -1732.27177347
  atomic energy  EATOM  =      9669.17540095
  Solvation  Ediel_sol  =         0.00000000
  ---------------------------------------------------
  free energy    TOTEN  =       -70.66204341 eV

  energy without entropy =      -70.66204341  energy(sigma->0) =      -70.66204341


--------------------------------------------------------------------------------------------------------




----------------------------------------- Iteration    1(   3)  ---------------------------------------


     EDDAV:  cpu time    6.6690: real time    6.6724
 BZINTS: Fermi energy:  1.930287;104.000000 electrons
         Band energy:***********;  BLOECHL correction:  0.000000
       DOS:  cpu time    0.0050: real time    0.0050
    --------------------------------------------
      LOOP:  cpu time    6.6750: real time    6.6800

 eigenvalue-minimisations  :  8736
 total energy-change (2. order) :-0.4220028E+02  (-0.4187921E+02)
 number of electron     104.0000000 magnetization 
 augmentation part      104.0000000 magnetization 

 Free energy of the ion-electron system (eV)
  ---------------------------------------------------
  alpha Z        PSCENC =       187.11571126
  Ewald energy   TEWEN  =    117773.69822227
  -Hartree energ DENC   =   -126426.91289780
  -exchange      EXHF   =         0.00000000
  -V(xc)+E(xc)   XCENC  =        -4.71683430
  PAW double counting   =      8007.66886860    -7544.41874093
  entropy T*S    EENTRO =         0.00000000
  eigenvalues    EBANDS =     -1774.47205709
  atomic energy  EATOM  =      9669.17540095
  Solvation  Ediel_sol  =         0.00000000
  ---------------------------------------------------
  free energy    TOTEN  =      -112.86232703 eV

  energy without entropy =     -112.86232703  energy(sigma->0) =     -112.86232703


--------------------------------------------------------------------------------------------------------




----------------------------------------- Iteration    1(   4)  ---------------------------------------


     EDDAV:  cpu time    6.8190: real time    6.8231
 BZINTS: Fermi energy:  1.996871;104.000000 electrons
         Band energy:***********;  BLOECHL correction:  0.000000
       DOS:  cpu time    0.0050: real time    0.0049
    --------------------------------------------
      LOOP:  cpu time    6.8240: real time    6.8311

 eigenvalue-minimisations  :  9072
 total energy-change (2. order) :-0.8514916E+00  (-0.8511305E+00)
 number of electron     104.0000000 magnetization 
 augmentation part      104.0000000 magnetization 

 Free energy of the ion-electron system (eV)
  ---------------------------------------------------
  alpha Z        PSCENC =       187.11571126
  Ewald energy   TEWEN  =    117773.69822227
  -Hartree energ DENC   =   -126426.91289780
  -exchange      EXHF   =         0.00000000
  -V(xc)+E(xc)   XCENC  =        -4.71683430
  PAW double counting   =      8007.66886860    -7544.41874093
  entropy T*S    EENTRO =         0.00000000
  eigenvalues    EBANDS =     -1775.32354871
  atomic energy  EATOM  =      9669.17540095
  Solvation  Ediel_sol  =         0.00000000
  ---------------------------------------------------
  free energy    TOTEN  =      -113.71381864 eV

  energy without entropy =     -113.71381864  energy(sigma->0) =     -113.71381864


--------------------------------------------------------------------------------------------------------




----------------------------------------- Iteration    1(   5)  ---------------------------------------


     EDDAV:  cpu time    6.9509: real time    6.9959
 BZINTS: Fermi energy:  1.958149;104.000000 electrons
         Band energy:***********;  BLOECHL correction:  0.000000
       DOS:  cpu time    0.0050: real time    0.0050
    CHARGE:  cpu time    0.1610: real time    0.1673
    MIXING:  cpu time    0.0010: real time    0.0013
    --------------------------------------------
      LOOP:  cpu time    7.1189: real time    7.1733

 eigenvalue-minimisations  :  9128
 total energy-change (2. order) :-0.1864272E-01  (-0.1864182E-01)
 number of electron     104.0000010 magnetization 
 augmentation part      -13.8275585 magnetization 

 Broyden mixing:
  rms(total) = 0.15376E+02    rms(broyden)= 0.15376E+02
  rms(prec ) = 0.15381E+02
  weight for this iteration     100.00

 Free energy of the ion-electron system (eV)
  ---------------------------------------------------
  alpha Z        PSCENC =       187.11571126
  Ewald energy   TEWEN  =    117773.69822227
  -Hartree energ DENC   =   -126426.91289780
  -exchange      EXHF   =         0.00000000
  -V(xc)+E(xc)   XCENC  =        -4.71683430
  PAW double counting   =      8007.66886860    -7544.41874093
  entropy T*S    EENTRO =         0.00000000
  eigenvalues    EBANDS =     -1775.34219142
  atomic energy  EATOM  =      9669.17540095
  Solvation  Ediel_sol  =         0.00000000
  ---------------------------------------------------
  free energy    TOTEN  =      -113.73246136 eV

  energy without entropy =     -113.73246136  energy(sigma->0) =     -113.73246136


--------------------------------------------------------------------------------------------------------




----------------------------------------- Iteration    1(   6)  ---------------------------------------


    POTLOK:  cpu time    0.0280: real time    0.0332
    SETDIJ:  cpu time    0.0060: real time    0.0060
     EDDAV:  cpu time    5.3732: real time    5.4576
 BZINTS: Fermi energy:  0.650613;104.000000 electrons
         Band energy:***********;  BLOECHL correction:  0.000000
       DOS:  cpu time    0.0050: real time    0.0050
    CHARGE:  cpu time    0.1850: real time    0.1849
    MIXING:  cpu time    0.0010: real time    0.0013
    --------------------------------------------
      LOOP:  cpu time    5.5991: real time    5.6907

 eigenvalue-minimisations  :  6440
 total energy-change (2. order) : 0.1005286E+02  (-0.3639898E+01)
 number of electron     104.0000010 magnetization 
 augmentation part      -12.9548433 magnetization 

 Broyden mixing:
  rms(total) = 0.14621E+02    rms(broyden)= 0.14621E+02
  rms(prec ) = 0.14622E+02
  weight for this iteration     100.00

 eigenvalues of (default mixing * dielectric matrix)
  average eigenvalue GAMMA=   2.4620
  2.4620

 Free energy of the ion-electron system (eV)
  ---------------------------------------------------
  alpha Z        PSCENC =       187.11571126
  Ewald energy   TEWEN  =    117773.69822227
  -Hartree energ DENC   =   -126272.79061122
  -exchange      EXHF   =         0.00000000
  -V(xc)+E(xc)   XCENC  =        -6.68222934
  PAW double counting   =     10089.04490003    -9632.21197891
  entropy T*S    EENTRO =         0.00000000
  eigenvalues    EBANDS =     -1911.02902035
  atomic energy  EATOM  =      9669.17540095
  Solvation  Ediel_sol  =         0.00000000
  ---------------------------------------------------
  free energy    TOTEN  =      -103.67960531 eV

  energy without entropy =     -103.67960531  energy(sigma->0) =     -103.67960531


--------------------------------------------------------------------------------------------------------




----------------------------------------- Iteration    1(   7)  ---------------------------------------


    POTLOK:  cpu time    0.0290: real time    0.0300
    SETDIJ:  cpu time    0.0070: real time    0.0069
     EDDAV:  cpu time    6.2570: real time    6.2670
 BZINTS: Fermi energy:  1.790263;104.000000 electrons
         Band energy:***********;  BLOECHL correction:  0.000000
       DOS:  cpu time    0.0040: real time    0.0050
    CHARGE:  cpu time    0.1860: real time    0.1860
    MIXING:  cpu time    0.0020: real time    0.0012
    --------------------------------------------
      LOOP:  cpu time    6.4860: real time    6.4985

 eigenvalue-minimisations  :  7504
 total energy-change (2. order) :-0.2261234E+01  (-0.2383481E+01)
 number of electron     104.0000010 magnetization 
 augmentation part      -13.4724092 magnetization 

 Broyden mixing:
  rms(total) = 0.34605E+01    rms(broyden)= 0.34604E+01
  rms(prec ) = 0.34696E+01
  weight for this iteration     100.00

 eigenvalues of (default mixing * dielectric matrix)
  average eigenvalue GAMMA=   1.4863
  0.8593  2.1133

 Free energy of the ion-electron system (eV)
  ---------------------------------------------------
  alpha Z        PSCENC =       187.11571126
  Ewald energy   TEWEN  =    117773.69822227
  -Hartree energ DENC   =   -126412.83350365
  -exchange      EXHF   =         0.00000000
  -V(xc)+E(xc)   XCENC  =        -6.91594786
  PAW double counting   =     14382.25063863   -13917.03203444
  entropy T*S    EENTRO =         0.00000000
  eigenvalues    EBANDS =     -1781.39932643
  atomic energy  EATOM  =      9669.17540095
  Solvation  Ediel_sol  =         0.00000000
  ---------------------------------------------------
  free energy    TOTEN  =      -105.94083926 eV

  energy without entropy =     -105.94083926  energy(sigma->0) =     -105.94083926


--------------------------------------------------------------------------------------------------------




----------------------------------------- Iteration    1(   8)  ---------------------------------------


    POTLOK:  cpu time    0.0310: real time    0.0312
    SETDIJ:  cpu time    0.0060: real time    0.0060
     EDDAV:  cpu time    6.0861: real time    6.0925
 BZINTS: Fermi energy:  0.963462;104.000000 electrons
         Band energy:***********;  BLOECHL correction:  0.000000
       DOS:  cpu time    0.0040: real time    0.0044
    CHARGE:  cpu time    0.1760: real time    0.1754
    MIXING:  cpu time    0.0010: real time    0.0011
    --------------------------------------------
      LOOP:  cpu time    6.3040: real time    6.3134

 eigenvalue-minimisations  :  7364
 total energy-change (2. order) : 0.3349401E+01  (-0.8650869E+00)
 number of electron     104.0000010 magnetization 
 augmentation part      -13.0881799 magnetization 

 Broyden mixing:
  rms(total) = 0.35871E+00    rms(broyden)= 0.35859E+00
  rms(prec ) = 0.35939E+00
  weight for this iteration     100.00

 eigenvalues of (default mixing * dielectric matrix)
  average eigenvalue GAMMA=   1.4167
  1.7426  1.7426  0.7651

 Free energy of the ion-electron system (eV)
  ---------------------------------------------------
  alpha Z        PSCENC =       187.11571126
  Ewald energy   TEWEN  =    117773.69822227
  -Hartree energ DENC   =   -126318.74025625
  -exchange      EXHF   =         0.00000000
  -V(xc)+E(xc)   XCENC  =        -7.30815497
  PAW double counting   =     13676.39597029   -13214.09409904
  entropy T*S    EENTRO =         0.00000000
  eigenvalues    EBANDS =     -1868.83423269
  atomic energy  EATOM  =      9669.17540095
  Solvation  Ediel_sol  =         0.00000000
  ---------------------------------------------------
  free energy    TOTEN  =      -102.59143818 eV

  energy without entropy =     -102.59143818  energy(sigma->0) =     -102.59143818


--------------------------------------------------------------------------------------------------------




----------------------------------------- Iteration    1(   9)  ---------------------------------------


    POTLOK:  cpu time    0.0290: real time    0.0304
    SETDIJ:  cpu time    0.0060: real time    0.0060
     EDDAV:  cpu time    6.3910: real time    6.4000
 BZINTS: Fermi energy:  1.011234;104.000000 electrons
         Band energy:***********;  BLOECHL correction:  0.000000
       DOS:  cpu time    0.0050: real time    0.0045
    CHARGE:  cpu time    0.1650: real time    0.1649
    MIXING:  cpu time    0.0010: real time    0.0012
    --------------------------------------------
      LOOP:  cpu time    6.5980: real time    6.6112

 eigenvalue-minimisations  :  8204
 total energy-change (2. order) :-0.3558114E-01  (-0.7138799E-01)
 number of electron     104.0000010 magnetization 
 augmentation part      -13.1215465 magnetization 

 Broyden mixing:
  rms(total) = 0.30113E+00    rms(broyden)= 0.30112E+00
  rms(prec ) = 0.30127E+00
  weight for this iteration     100.00

 eigenvalues of (default mixing * dielectric matrix)
  average eigenvalue GAMMA=   1.3351
  1.9913  1.9913  0.7600  0.5979

 Free energy of the ion-electron system (eV)
  ---------------------------------------------------
  alpha Z        PSCENC =       187.11571126
  Ewald energy   TEWEN  =    117773.69822227
  -Hartree energ DENC   =   -126330.32343077
  -exchange      EXHF   =         0.00000000
  -V(xc)+E(xc)   XCENC  =        -7.15677579
  PAW double counting   =     13474.96074082   -13011.57757732
  entropy T*S    EENTRO =         0.00000000
  eigenvalues    EBANDS =     -1858.51931075
  atomic energy  EATOM  =      9669.17540095
  Solvation  Ediel_sol  =         0.00000000
  ---------------------------------------------------
  free energy    TOTEN  =      -102.62701932 eV

  energy without entropy =     -102.62701932  energy(sigma->0) =     -102.62701932


--------------------------------------------------------------------------------------------------------




----------------------------------------- Iteration    1(  10)  ---------------------------------------


    POTLOK:  cpu time    0.0280: real time    0.0289
    SETDIJ:  cpu time    0.0060: real time    0.0060
     EDDAV:  cpu time    7.5718: real time    7.5794
 BZINTS: Fermi energy:  1.036518;104.000000 electrons
         Band energy:***********;  BLOECHL correction:  0.000000
       DOS:  cpu time    0.0050: real time    0.0050
    CHARGE:  cpu time    0.1720: real time    0.1718
    MIXING:  cpu time    0.0010: real time    0.0012
    --------------------------------------------
      LOOP:  cpu time    7.7848: real time    7.7960

 eigenvalue-minimisations  :  9352
 total energy-change (2. order) :-0.1873181E-02  (-0.3738126E-02)
 number of electron     104.0000010 magnetization 
 augmentation part      -13.1353661 magnetization 

 Broyden mixing:
  rms(total) = 0.87936E-01    rms(broyden)= 0.87933E-01
  rms(prec ) = 0.88238E-01
  weight for this iteration     100.00

 eigenvalues of (default mixing * dielectric matrix)
  average eigenvalue GAMMA=   1.4460
  2.2343  2.2343  1.3005  0.7306  0.7306

 Free energy of the ion-electron system (eV)
  ---------------------------------------------------
  alpha Z        PSCENC =       187.11571126
  Ewald energy   TEWEN  =    117773.69822227
  -Hartree energ DENC   =   -126334.49721969
  -exchange      EXHF   =         0.00000000
  -V(xc)+E(xc)   XCENC  =        -7.09005425
  PAW double counting   =     13253.81649770   -12790.02361193
  entropy T*S    EENTRO =         0.00000000
  eigenvalues    EBANDS =     -1854.82383882
  atomic energy  EATOM  =      9669.17540095
  Solvation  Ediel_sol  =         0.00000000
  ---------------------------------------------------
  free energy    TOTEN  =      -102.62889250 eV

  energy without entropy =     -102.62889250  energy(sigma->0) =     -102.62889250


--------------------------------------------------------------------------------------------------------




----------------------------------------- Iteration    1(  11)  ---------------------------------------


    POTLOK:  cpu time    0.0300: real time    0.0306
    SETDIJ:  cpu time    0.0060: real time    0.0060
     EDDAV:  cpu time    6.5810: real time    6.5872
 BZINTS: Fermi energy:  1.082363;104.000000 electrons
         Band energy:***********;  BLOECHL correction:  0.000000
       DOS:  cpu time    0.0040: real time    0.0044
    CHARGE:  cpu time    0.1620: real time    0.1633
    MIXING:  cpu time    0.0010: real time    0.0012
    --------------------------------------------
      LOOP:  cpu time    6.7860: real time    6.7951

 eigenvalue-minimisations  :  7980
 total energy-change (2. order) : 0.3111405E-02  (-0.1043955E-02)
 number of electron     104.0000010 magnetization 
 augmentation part      -13.1313471 magnetization 

 Broyden mixing:
  rms(total) = 0.17243E-01    rms(broyden)= 0.17242E-01
  rms(prec ) = 0.17332E-01
  weight for this iteration     100.00

 eigenvalues of (default mixing * dielectric matrix)
  average eigenvalue GAMMA=   1.4129
  2.3244  2.3244  1.2026  1.2026  0.7392  0.6841

 Free energy of the ion-electron system (eV)
  ---------------------------------------------------
  alpha Z        PSCENC =       187.11571126
  Ewald energy   TEWEN  =    117773.69822227
  -Hartree energ DENC   =   -126340.39243886
  -exchange      EXHF   =         0.00000000
  -V(xc)+E(xc)   XCENC  =        -7.07670346
  PAW double counting   =     13195.47623197   -12731.20571810
  entropy T*S    EENTRO =         0.00000000
  eigenvalues    EBANDS =     -1849.41648712
  atomic energy  EATOM  =      9669.17540095
  Solvation  Ediel_sol  =         0.00000000
  ---------------------------------------------------
  free energy    TOTEN  =      -102.62578110 eV

  energy without entropy =     -102.62578110  energy(sigma->0) =     -102.62578110


--------------------------------------------------------------------------------------------------------




----------------------------------------- Iteration    1(  12)  ---------------------------------------


    POTLOK:  cpu time    0.0280: real time    0.0287
    SETDIJ:  cpu time    0.0060: real time    0.0060
     EDDAV:  cpu time    6.7880: real time    6.7936
 BZINTS: Fermi energy:  1.096080;104.000000 electrons
         Band energy:***********;  BLOECHL correction:  0.000000
       DOS:  cpu time    0.0040: real time    0.0045
    CHARGE:  cpu time    0.1620: real time    0.1630
    MIXING:  cpu time    0.0010: real time    0.0012
    --------------------------------------------
      LOOP:  cpu time    6.9899: real time    6.9994

 eigenvalue-minimisations  :  8512
 total energy-change (2. order) :-0.1218324E-03  (-0.1445456E-03)
 number of electron     104.0000010 magnetization 
 augmentation part      -13.1320883 magnetization 

 Broyden mixing:
  rms(total) = 0.10992E-01    rms(broyden)= 0.10992E-01
  rms(prec ) = 0.11071E-01
  weight for this iteration     100.00

 eigenvalues of (default mixing * dielectric matrix)
  average eigenvalue GAMMA=   1.2969
  2.2600  2.2600  1.2199  1.2199  0.7797  0.6694  0.6694

 Free energy of the ion-electron system (eV)
  ---------------------------------------------------
  alpha Z        PSCENC =       187.11571126
  Ewald energy   TEWEN  =    117773.69822227
  -Hartree energ DENC   =   -126342.18635232
  -exchange      EXHF   =         0.00000000
  -V(xc)+E(xc)   XCENC  =        -7.06886408
  PAW double counting   =     13171.59361705   -12707.25590962
  entropy T*S    EENTRO =         0.00000000
  eigenvalues    EBANDS =     -1847.69772844
  atomic energy  EATOM  =      9669.17540095
  Solvation  Ediel_sol  =         0.00000000
  ---------------------------------------------------
  free energy    TOTEN  =      -102.62590293 eV

  energy without entropy =     -102.62590293  energy(sigma->0) =     -102.62590293


--------------------------------------------------------------------------------------------------------




----------------------------------------- Iteration    1(  13)  ---------------------------------------


    POTLOK:  cpu time    0.0280: real time    0.0280
    SETDIJ:  cpu time    0.0060: real time    0.0059
     EDDAV:  cpu time    7.4189: real time    7.4274
 BZINTS: Fermi energy:  1.099220;104.000000 electrons
         Band energy:***********;  BLOECHL correction:  0.000000
       DOS:  cpu time    0.0040: real time    0.0044
    CHARGE:  cpu time    0.1650: real time    0.1643
    MIXING:  cpu time    0.0020: real time    0.0024
    --------------------------------------------
      LOOP:  cpu time    7.6258: real time    7.6358

 eigenvalue-minimisations  :  9324
 total energy-change (2. order) : 0.1728558E-05  (-0.7813800E-05)
 number of electron     104.0000010 magnetization 
 augmentation part      -13.1328051 magnetization 

 Broyden mixing:
  rms(total) = 0.96921E-02    rms(broyden)= 0.96921E-02
  rms(prec ) = 0.97637E-02
  weight for this iteration     100.00

 eigenvalues of (default mixing * dielectric matrix)
  average eigenvalue GAMMA=   1.3963
  2.3939  2.3939  1.5539  1.5539  0.7184  0.7184  0.9190  0.9190

 Free energy of the ion-electron system (eV)
  ---------------------------------------------------
  alpha Z        PSCENC =       187.11571126
  Ewald energy   TEWEN  =    117773.69822227
  -Hartree energ DENC   =   -126342.58222900
  -exchange      EXHF   =         0.00000000
  -V(xc)+E(xc)   XCENC  =        -7.06966660
  PAW double counting   =     13178.11043168   -12713.79269167
  entropy T*S    EENTRO =         0.00000000
  eigenvalues    EBANDS =     -1847.28108010
  atomic energy  EATOM  =      9669.17540095
  Solvation  Ediel_sol  =         0.00000000
  ---------------------------------------------------
  free energy    TOTEN  =      -102.62590120 eV

  energy without entropy =     -102.62590120  energy(sigma->0) =     -102.62590120


--------------------------------------------------------------------------------------------------------




----------------------------------------- Iteration    1(  14)  ---------------------------------------


    POTLOK:  cpu time    0.0280: real time    0.0286
    SETDIJ:  cpu time    0.0060: real time    0.0059
     EDDAV:  cpu time    7.0529: real time    7.0610
 BZINTS: Fermi energy:  1.114183;104.000000 electrons
         Band energy:***********;  BLOECHL correction:  0.000000
       DOS:  cpu time    0.0050: real time    0.0044
    CHARGE:  cpu time    0.1790: real time    0.1794
    MIXING:  cpu time    0.0020: real time    0.0018
    --------------------------------------------
      LOOP:  cpu time    7.2739: real time    7.2845

 eigenvalue-minimisations  :  8652
 total energy-change (2. order) :-0.1374171E-04  (-0.5399867E-05)
[...]
    LRDIAG:  cpu time    0.2000: real time    0.2007
    LRDIIS:  cpu time    4.0794: real time    4.0817
    LRDIAG:  cpu time    0.1950: real time    0.1953
    MIXING:  cpu time    0.0020: real time    0.0018
    --------------------------------------------
      LOOP:  cpu time    6.1241: real time    6.1291

 Broyden mixing:
  rms(total) = 0.67777E-05    rms(broyden)= 0.67774E-05
  rms(prec ) = 0.78416E-05
  weight for this iteration     100.00

 eigenvalues of (default mixing * dielectric matrix)
  average eigenvalue GAMMA=   2.3133
  8.7473  6.7720  4.0271  3.7547  2.8138  2.5720  1.8947  1.8947  1.3196  1.2058
  0.9820  0.9820  0.9210  0.9210  0.7562  0.6772  0.7076  0.6911

 Free energy of the ion-electron system (eV)
  ---------------------------------------------------
  -Hartree energ DENC   =        -0.64901029
  -V(xc)+E(xc)   XCENC  =         0.00950233
  PAW double counting   =         0.02619191       -0.02628469
  entropy T*S    EENTRO =         0.00000000
  eigenvalues    EBANDS =        -0.22394736
  ---------------------------------------------------
  free energy    TOTEN  =        -0.86354810 eV

  energy without entropy =       -0.86354810


----------------------------------------- Iteration    3(  21)  ---------------------------------------


   POT+DIJ:  cpu time    0.0710: real time    0.0722
    HAMIL1:  cpu time    1.1388: real time    1.1391
    LRDIAG:  cpu time    0.2010: real time    0.2009
    LRDIIS:  cpu time    4.0244: real time    4.0267
    LRDIAG:  cpu time    0.1960: real time    0.1955
    MIXING:  cpu time    0.0020: real time    0.0018
    --------------------------------------------
      LOOP:  cpu time    6.0631: real time    6.0693

 Broyden mixing:
  rms(total) = 0.29150E-05    rms(broyden)= 0.29146E-05
  rms(prec ) = 0.31546E-05
  weight for this iteration     100.00

 eigenvalues of (default mixing * dielectric matrix)
  average eigenvalue GAMMA=   2.3263
  8.8746  6.9208  4.3172  3.9037  2.7151  2.7151  1.9676  1.9676  1.6889  1.3409
  1.1878  1.0173  0.9205  0.9205  0.8978  0.7562  0.6772  0.7055  0.7045

 Free energy of the ion-electron system (eV)
  ---------------------------------------------------
  -Hartree energ DENC   =        -0.64900866
  -V(xc)+E(xc)   XCENC  =         0.00950247
  PAW double counting   =         0.02619552       -0.02628838
  entropy T*S    EENTRO =         0.00000000
  eigenvalues    EBANDS =        -0.22395502
  ---------------------------------------------------
  free energy    TOTEN  =        -0.86355407 eV

  energy without entropy =       -0.86355407


----------------------------------------- Iteration    3(  22)  ---------------------------------------


   POT+DIJ:  cpu time    0.0720: real time    0.0720
    HAMIL1:  cpu time    1.1318: real time    1.1341
    LRDIAG:  cpu time    0.2020: real time    0.2022
    LRDIIS:  cpu time    4.1914: real time    4.1933
    LRDIAG:  cpu time    0.1950: real time    0.1949
    MIXING:  cpu time    0.0020: real time    0.0019
    --------------------------------------------
      LOOP:  cpu time    6.2291: real time    6.2355

 Broyden mixing:
  rms(total) = 0.14393E-05    rms(broyden)= 0.14391E-05
  rms(prec ) = 0.15621E-05
  weight for this iteration     100.00

 eigenvalues of (default mixing * dielectric matrix)
  average eigenvalue GAMMA=   2.3288
  9.1384  6.9756  4.7881  3.6729  2.9452  2.9452  2.2281  2.0717  1.8102  1.3208
  1.2080  1.0005  0.9217  0.9217  0.9455  0.8446  0.7561  0.6772  0.7078  0.6971

 Free energy of the ion-electron system (eV)
  ---------------------------------------------------
  -Hartree energ DENC   =        -0.64900924
  -V(xc)+E(xc)   XCENC  =         0.00950245
  PAW double counting   =         0.02619636       -0.02628921
  entropy T*S    EENTRO =         0.00000000
  eigenvalues    EBANDS =        -0.22395672
  ---------------------------------------------------
  free energy    TOTEN  =        -0.86355636 eV

  energy without entropy =       -0.86355636


----------------------------------------- Iteration    3(  23)  ---------------------------------------


   POT+DIJ:  cpu time    0.0720: real time    0.0724
    HAMIL1:  cpu time    1.1318: real time    1.1330
    LRDIAG:  cpu time    0.2010: real time    0.2009
    LRDIIS:  cpu time    3.8264: real time    3.8294
    LRDIAG:  cpu time    0.1950: real time    0.1955
    MIXING:  cpu time    0.0020: real time    0.0020
    --------------------------------------------
      LOOP:  cpu time    5.8771: real time    5.8843

 Broyden mixing:
  rms(total) = 0.53040E-06    rms(broyden)= 0.53030E-06
  rms(prec ) = 0.60743E-06
  weight for this iteration     100.00

 eigenvalues of (default mixing * dielectric matrix)
  average eigenvalue GAMMA=   2.2956
  9.2129  6.9665  4.8672  3.6846  2.9988  2.9988  2.1550  2.1550  1.7562  1.4027
  1.2783  1.2205  1.0427  0.9207  0.9207  0.9521  0.8340  0.7562  0.6772  0.7074
  0.6998

 Free energy of the ion-electron system (eV)
  ---------------------------------------------------
  -Hartree energ DENC   =        -0.64901003
  -V(xc)+E(xc)   XCENC  =         0.00950240
  PAW double counting   =         0.02619649       -0.02628932
  entropy T*S    EENTRO =         0.00000000
  eigenvalues    EBANDS =        -0.22395814
  ---------------------------------------------------
  free energy    TOTEN  =        -0.86355860 eV

  energy without entropy =       -0.86355860


------------------------ aborting loop because EDIFF is reached ----------------------------------------


 change of polarisation eV/A/(eV/A) component  3 :    -0.006     0.002     1.694
 dielectric tensor                  component  3 :    -0.002     0.001     1.698


--------------------------------------------------------------------------------------------------------


    FORLOC:  cpu time    0.0040: real time    0.0033
    FORNL :  cpu time    1.2818: real time    1.2820
    STRESS:  cpu time    3.1875: real time    3.2080
    FORCOR:  cpu time    0.0300: real time    0.0309
    OFIELD:  cpu time    0.0010: real time    0.0002

  Hirshfeld charges:
            ion         q(e)     
   ------------------------------
      1     W           0.351
      2     W           0.350
      3     W           0.350
      4     W           0.351
      5     S          -0.175
      6     S          -0.176
      7     S          -0.175
      8     S          -0.175
      9     S          -0.175
     10     S          -0.175
     11     S          -0.176
     12     S          -0.175

  Tkatchenko/Scheffler method for vdW energy calculation
  ---------------------------------------------------------------------------------------------

  Parameters of vdW forcefield:
            C6ts              R0ts           ALPHAts        RELVOL
            (au)              (au)            (au)                
   ---------------------------------------------------------------
   W         873.707          4.102         72.112          1.015
   W         882.163          4.109         72.461          1.020
   W         882.163          4.109         72.461          1.020
   W         873.707          4.102         72.112          1.015
   S         135.469          3.862         19.707          1.005
   S         132.620          3.848         19.499          0.995
   S         135.472          3.862         19.707          1.005
   S         135.466          3.862         19.707          1.005
   S         135.466          3.862         19.707          1.005
   S         135.472          3.862         19.707          1.005
   S         132.620          3.848         19.499          0.995
   S         135.469          3.862         19.707          1.005
  Edisp (eV):   -3.26970
    FORVDW:  cpu time    0.4969: real time    0.4977
    FORLOC:  cpu time    0.0030: real time    0.0032
    FORNL :  cpu time    1.2818: real time    1.2824
    STRESS:  cpu time    3.2075: real time    3.2097
    FORCOR:  cpu time    0.0290: real time    0.0291
    OFIELD:  cpu time    0.0000: real time    0.0002

  Hirshfeld charges:
            ion         q(e)     
   ------------------------------
      1     W           0.351
      2     W           0.350
      3     W           0.350
      4     W           0.351
      5     S          -0.175
      6     S          -0.176
      7     S          -0.175
      8     S          -0.175
      9     S          -0.175
     10     S          -0.175
     11     S          -0.176
     12     S          -0.175

  Tkatchenko/Scheffler method for vdW energy calculation
  ---------------------------------------------------------------------------------------------

  Parameters of vdW forcefield:
            C6ts              R0ts           ALPHAts        RELVOL
            (au)              (au)            (au)                
   ---------------------------------------------------------------
   W         873.707          4.102         72.112          1.015
   W         882.163          4.109         72.461          1.020
   W         882.163          4.109         72.461          1.020
   W         873.707          4.102         72.112          1.015
   S         135.469          3.862         19.707          1.005
   S         132.620          3.848         19.499          0.995
   S         135.472          3.862         19.707          1.005
   S         135.466          3.862         19.707          1.005
   S         135.466          3.862         19.707          1.005
   S         135.472          3.862         19.707          1.005
   S         132.620          3.848         19.499          0.995
   S         135.469          3.862         19.707          1.005
  Edisp (eV):   -3.26970
    FORVDW:  cpu time    0.4989: real time    0.4978
    FORNLD:  cpu time    2.7986: real time    2.8014

 PIEZOELECTRIC TENSOR FIELD DIRECTION 3  (e Angst)
 -----------------------------------------------------------------------------
     0.20182 -0.00000  0.00000           ( -0.00000 -0.00000  0.00000)
     0.00000  0.20182 -0.00000           (  0.00000 -0.00000 -0.00000)
    -0.00000 -0.00000  0.33763           ( -0.00000 -0.00000  0.00000)

 PIEZOELECTRIC TENSOR FIELD DIRECTION 3  (C/m^2)
 -----------------------------------------------------------------------------
     0.00736 -0.00000  0.00000
     0.00000  0.00736 -0.00000
    -0.00000 -0.00000  0.01231


      POSITION         DIRECTION 3           BORN EFFECTIVE CHARGE    (rigid.aug.   ionic)
 -----------------------------------------------------------------------------------------
     -0.00000      0.91970     15.77500     0.00000 -0.00000-26.46623 (  1.96478 14.00000)
      1.59297      1.83941     21.92500     0.00000 -0.00000 -3.54704 (  1.96472 14.00000)
     -0.00000      0.91970     28.07500    -0.00000 -0.00000 -3.58372 (  1.96472 14.00000)
      1.59297      1.83941     34.22500    -0.00000  0.00000-26.38857 (  1.96478 14.00000)
      1.59297      1.83941     17.34780    -0.00000  0.00000 -1.50865 (  0.65943  6.00000)
      1.59297      1.83941     14.20220    -0.00000  0.00000  2.77380 (  0.65870  6.00000)
     -0.00000      0.91970     23.49780     0.00000  0.00000  0.01181 (  0.65945  6.00000)
     -0.00000      0.91970     20.35220     0.00000  0.00000  0.55512 (  0.65945  6.00000)
      1.59297      1.83941     29.64780     0.00000  0.00000  0.62646 (  0.65945  6.00000)
      1.59297      1.83941     26.50220     0.00000 -0.00000  0.06809 (  0.65945  6.00000)
     -0.00000      0.91970     35.79780    -0.00000 -0.00000  2.73481 (  0.65870  6.00000)
     -0.00000      0.91970     32.65220    -0.00000  0.00000 -1.58576 (  0.65943  6.00000)
 -----------------------------------------------------------------------------------------
    total drift (improves with k-points):  -0.00000  0.00000-56.30986




--------------------------------------------------------------------------------------------------------


  LATTYP: Found a hexagonal cell.
 ALAT       =     3.1859459497
 C/A-ratio  =    15.6939260082
  
  Lattice vectors:
  
 A1 = (   3.1859459497,   0.0000000000,   0.0000000000)
 A2 = (  -1.5929729748,   2.7591101275,   0.0000000000)
 A3 = (   0.0000000000,   0.0000000000,  50.0000000000)


Analysis of symmetry for initial positions (statically):
=====================================================================
 Subroutine PRICEL returns:
 Original cell was already a primitive cell.
 

 Routine SETGRP: Setting up the symmetry group for a 
 hexagonal supercell.


 Subroutine GETGRP returns: Found 12 space group operations
 (whereof  4 operations were pure point group operations)
 out of a pool of 24 trial point group operations.


The static configuration has the point symmetry C_2h.
 The point group associated with its full space group is D_3d.


Analysis of symmetry for dynamics (positions and initial velocities):
=====================================================================
 Subroutine PRICEL returns:
 Original cell was already a primitive cell.
 

 Routine SETGRP: Setting up the symmetry group for a 
 hexagonal supercell.


 Subroutine GETGRP returns: Found 12 space group operations
 (whereof  4 operations were pure point group operations)
 out of a pool of 24 trial point group operations.


The dynamic configuration has the point symmetry C_2h.
 The point group associated with its full space group is D_3d.


 Subroutine INISYM returns: Found 12 space group operations
 (whereof  4 operations are pure point group operations),
 and found     1 'primitive' translations



 MACROSCOPIC STATIC DIELECTRIC TENSOR (including local field effects in DFT)
 ------------------------------------------------------
           7.401217     0.000000    -0.000000
          -0.000000     7.401217     0.000000
          -0.000000     0.000000     1.697521
 ------------------------------------------------------



--------------------------------------------------------------------------------------------------------


  LATTYP: Found a hexagonal cell.
 ALAT       =     3.1859459497
 C/A-ratio  =    15.6939260082
  
  Lattice vectors:
  
 A1 = (   3.1859459497,   0.0000000000,   0.0000000000)
 A2 = (  -1.5929729748,   2.7591101275,   0.0000000000)
 A3 = (   0.0000000000,   0.0000000000,  50.0000000000)


Analysis of symmetry for initial positions (statically):
=====================================================================
 Subroutine PRICEL returns:
 Original cell was already a primitive cell.
 

 Routine SETGRP: Setting up the symmetry group for a 
 hexagonal supercell.


 Subroutine GETGRP returns: Found 12 space group operations
 (whereof  4 operations were pure point group operations)
 out of a pool of 24 trial point group operations.


The static configuration has the point symmetry C_2h.
 The point group associated with its full space group is D_3d.


Analysis of symmetry for dynamics (positions and initial velocities):
=====================================================================
 Subroutine PRICEL returns:
 Original cell was already a primitive cell.
 

 Routine SETGRP: Setting up the symmetry group for a 
 hexagonal supercell.


 Subroutine GETGRP returns: Found 12 space group operations
 (whereof  4 operations were pure point group operations)
 out of a pool of 24 trial point group operations.


The dynamic configuration has the point symmetry C_2h.
 The point group associated with its full space group is D_3d.


 Subroutine INISYM returns: Found 12 space group operations
 (whereof  4 operations are pure point group operations),
 and found     1 'primitive' translations



--------------------------------------------------------------------------------------------------------




 MACROSCOPIC STATIC DIELECTRIC TENSOR (including local field effects in DFT)
 ------------------------------------------------------
           7.401217     0.000000    -0.000000
          -0.000000     7.401217     0.000000
          -0.000000     0.000000     1.697521
 ------------------------------------------------------


 PIEZOELECTRIC TENSOR  for field in x, y, z        (e  Angst)
          XX          YY          ZZ          XY          YZ          ZX
  --------------------------------------------------------------------------------
  x    -0.00480     0.00690    -0.00101     0.00000     0.00009     0.00000
  y    -0.00934     0.01548     0.00139     0.00000     0.00010     0.00000
  z     0.20182     0.20182     0.33763     0.00000    -0.00000     0.00000

 PIEZOELECTRIC TENSOR  for field in x, y, z        (C/m^2)
          XX          YY          ZZ          XY          YZ          ZX
  --------------------------------------------------------------------------------
  x     0.00000     0.00000     0.00000     0.00000     0.00000     0.00000
  y     0.00000     0.00000     0.00000     0.00000     0.00000     0.00000
  z     0.00000     0.00000     0.00000     0.00000     0.00000     0.00000
 
 BORN EFFECTIVE CHARGES (in e, cummulative output)
 -------------------------------------------------
 ion    1
    1    -0.45044    -0.00036     0.00003
    2     0.00000    -0.45124     0.00001
    3     0.00000    -0.00000   -26.46623
 ion    2
    1    -0.45593     0.00029     0.00000
    2     0.00000    -0.45507    -0.00001
    3     0.00000    -0.00000    -3.54704
 ion    3
    1    -0.45593    -0.00029    -0.00000
    2     0.00000    -0.45679     0.00001
    3    -0.00000    -0.00000    -3.58372
 ion    4
    1    -0.45044     0.00036    -0.00003
    2     0.00000    -0.44965    -0.00001
    3    -0.00000     0.00000   -26.38857
 ion    5
    1     0.24062    -0.00142     0.00010
    2     0.00000     0.24106     0.00076
    3    -0.00000     0.00000    -1.50865
 ion    6
    1     0.25930    -0.00137    -0.00005
    2    -0.00000     0.25972    -0.00050
    3    -0.00000     0.00000     2.77380
 ion    7
    1     0.25281     0.00145     0.00011
    2     0.00000     0.25233     0.00075
    3     0.00000     0.00000     0.01181
 ion    8
    1     0.25317     0.00146    -0.00011
    2    -0.00000     0.25272    -0.00075
    3     0.00000     0.00000     0.55512
 ion    9
    1     0.25317    -0.00146     0.00011
    2     0.00000     0.25363     0.00076
    3     0.00000     0.00000     0.62646
 ion   10
    1     0.25281    -0.00145    -0.00011
    2    -0.00000     0.25329    -0.00075
    3     0.00000    -0.00000     0.06809
 ion   11
    1     0.25930     0.00137     0.00005
    2    -0.00000     0.25888     0.00050
    3    -0.00000    -0.00000     2.73481
 ion   12
    1     0.24062     0.00142    -0.00010
    2    -0.00000     0.24019    -0.00076
    3    -0.00000     0.00000    -1.58576


--------------------------------------------------------------------------------------------------------


 writing wavefunctions
     LOOP+:  cpu time 1284.7257: real time 1288.5543
    4ORBIT:  cpu time    0.0000: real time    0.0000
 BZINTS: Fermi energy:  1.164272;104.000000 electrons
         Band energy:***********;  BLOECHL correction:  0.000000

 total amount of memory used by VASP on root node   139290. kBytes
========================================================================

   base      :      30000. kBytes
   nonl-proj :      89015. kBytes
   fftplans  :       1943. kBytes
   grid      :       7351. kBytes
   one-center:        389. kBytes
   wavefun   :      10592. kBytes
 
  
  
 General timing and accounting informations for this job:
 ========================================================
  
                  Total CPU time used (sec):     1287.501
                            User time (sec):     1258.579
                          System time (sec):       28.923
                         Elapsed time (sec):     1292.835
  
                   Maximum memory used (kb):      432364.
                   Average memory used (kb):           0.
  
                          Minor page faults:      7589610
                          Major page faults:            9
                 Voluntary context switches:         5596
