   3   3   0   0
  0.1463335E+03  0.3184067E-09  0.3184067E-09  0.5000000E-08  0.5000000E-15
  1.000000000000000E-004
  CAR 
 unknown system                          
     11.76043826    -68.94574217  301     -4.31354267      1.00000000
    -68.946  0.0000E+00  0.0000E+00
    -68.677  0.0000E+00  0.0000E+00
    -68.408  0.0000E+00  0.0000E+00
    -68.139  0.0000E+00  0.0000E+00
    -67.870  0.0000E+00  0.0000E+00
    -67.601  0.0000E+00  0.0000E+00
    -67.332  0.0000E+00  0.0000E+00
    -67.063  0.0000E+00  0.0000E+00
    -66.794  0.0000E+00  0.0000E+00
    -66.525  0.0000E+00  0.0000E+00
    -66.256  0.0000E+00  0.0000E+00
    -65.987  0.0000E+00  0.0000E+00
    -65.717  0.0000E+00  0.0000E+00
    -65.448  0.0000E+00  0.0000E+00
    -65.179  0.0000E+00  0.2000E+01
    -64.910  0.0000E+00  0.2000E+01
    -64.641  0.0000E+00  0.2000E+01
    -64.372  0.0000E+00  0.2000E+01
    -64.103  0.0000E+00  0.2000E+01
    -63.834  0.0000E+00  0.2000E+01
    -63.565  0.0000E+00  0.2000E+01
    -63.296  0.0000E+00  0.2000E+01
    -63.027  0.0000E+00  0.2000E+01
    -62.758  0.0000E+00  0.2000E+01
    -62.489  0.0000E+00  0.2000E+01
    -62.220  0.0000E+00  0.2000E+01
    -61.951  0.0000E+00  0.2000E+01
    -61.682  0.0000E+00  0.2000E+01
    -61.413  0.0000E+00  0.2000E+01
    -61.144  0.0000E+00  0.2000E+01
    -60.875  0.0000E+00  0.2000E+01
    -60.606  0.0000E+00  0.2000E+01
    -60.337  0.0000E+00  0.2000E+01
    -60.068  0.0000E+00  0.2000E+01
    -59.799  0.0000E+00  0.2000E+01
    -59.530  0.0000E+00  0.2000E+01
    -59.261  0.0000E+00  0.2000E+01
    -58.992  0.0000E+00  0.2000E+01
    -58.723  0.0000E+00  0.2000E+01
    -58.454  0.0000E+00  0.2000E+01
    -58.185  0.0000E+00  0.2000E+01
    -57.916  0.0000E+00  0.2000E+01
    -57.647  0.0000E+00  0.2000E+01
    -57.378  0.0000E+00  0.2000E+01
    -57.109  0.0000E+00  0.2000E+01
    -56.840  0.0000E+00  0.2000E+01
    -56.571  0.0000E+00  0.2000E+01
    -56.302  0.0000E+00  0.2000E+01
    -56.033  0.0000E+00  0.2000E+01
    -55.764  0.0000E+00  0.2000E+01
    -55.495  0.0000E+00  0.2000E+01
    -55.226  0.0000E+00  0.2000E+01
    -54.957  0.0000E+00  0.2000E+01
    -54.688  0.0000E+00  0.2000E+01
    -54.419  0.0000E+00  0.2000E+01
    -54.150  0.0000E+00  0.2000E+01
    -53.881  0.0000E+00  0.2000E+01
    -53.612  0.0000E+00  0.2000E+01
    -53.343  0.0000E+00  0.2000E+01
    -53.074  0.0000E+00  0.2000E+01
    -52.805  0.0000E+00  0.2000E+01
    -52.535  0.0000E+00  0.2000E+01
    -52.266  0.0000E+00  0.2000E+01
    -51.997  0.0000E+00  0.2000E+01
    -51.728  0.0000E+00  0.2000E+01
    -51.459  0.0000E+00  0.2000E+01
    -51.190  0.0000E+00  0.2000E+01
    -50.921  0.0000E+00  0.2000E+01
    -50.652  0.0000E+00  0.2000E+01
    -50.383  0.0000E+00  0.2000E+01
    -50.114  0.0000E+00  0.2000E+01
    -49.845  0.0000E+00  0.2000E+01
    -49.576  0.0000E+00  0.2000E+01
    -49.307  0.0000E+00  0.2000E+01
    -49.038  0.0000E+00  0.2000E+01
    -48.769  0.0000E+00  0.2000E+01
    -48.500  0.0000E+00  0.2000E+01
    -48.231  0.0000E+00  0.2000E+01
    -47.962  0.0000E+00  0.2000E+01
    -47.693  0.0000E+00  0.2000E+01
    -47.424  0.0000E+00  0.2000E+01
    -47.155  0.0000E+00  0.2000E+01
    -46.886  0.0000E+00  0.2000E+01
    -46.617  0.0000E+00  0.2000E+01
    -46.348  0.0000E+00  0.2000E+01
    -46.079  0.0000E+00  0.2000E+01
    -45.810  0.0000E+00  0.2000E+01
    -45.541  0.0000E+00  0.2000E+01
    -45.272  0.0000E+00  0.2000E+01
    -45.003  0.0000E+00  0.2000E+01
    -44.734  0.0000E+00  0.2000E+01
    -44.465  0.0000E+00  0.2000E+01
    -44.196  0.0000E+00  0.2000E+01
    -43.927  0.0000E+00  0.2000E+01
    -43.658  0.0000E+00  0.2000E+01
    -43.389  0.0000E+00  0.2000E+01
    -43.120  0.0000E+00  0.2000E+01
    -42.851  0.0000E+00  0.2000E+01
    -42.582  0.0000E+00  0.2000E+01
    -42.313  0.0000E+00  0.2000E+01
    -42.044  0.0000E+00  0.2000E+01
    -41.775  0.0000E+00  0.2000E+01
    -41.506  0.0000E+00  0.2000E+01
    -41.237  0.0000E+00  0.2000E+01
    -40.968  0.0000E+00  0.2000E+01
    -40.699  0.0000E+00  0.2000E+01
    -40.430  0.0000E+00  0.2000E+01
    -40.161  0.0000E+00  0.2000E+01
    -39.892  0.0000E+00  0.2000E+01
    -39.622  0.0000E+00  0.2000E+01
    -39.353  0.3468E+02  0.4726E+01
    -39.084  0.0000E+00  0.8000E+01
    -38.815  0.0000E+00  0.8000E+01
    -38.546  0.0000E+00  0.8000E+01
    -38.277  0.0000E+00  0.8000E+01
    -38.008  0.0000E+00  0.8000E+01
    -37.739  0.0000E+00  0.8000E+01
    -37.470  0.0000E+00  0.8000E+01
    -37.201  0.0000E+00  0.8000E+01
    -36.932  0.0000E+00  0.8000E+01
    -36.663  0.0000E+00  0.8000E+01
    -36.394  0.0000E+00  0.8000E+01
    -36.125  0.0000E+00  0.8000E+01
    -35.856  0.0000E+00  0.8000E+01
    -35.587  0.0000E+00  0.8000E+01
    -35.318  0.0000E+00  0.8000E+01
    -35.049  0.0000E+00  0.8000E+01
    -34.780  0.0000E+00  0.8000E+01
    -34.511  0.0000E+00  0.8000E+01
    -34.242  0.0000E+00  0.8000E+01
    -33.973  0.0000E+00  0.8000E+01
    -33.704  0.0000E+00  0.8000E+01
    -33.435  0.0000E+00  0.8000E+01
    -33.166  0.0000E+00  0.8000E+01
    -32.897  0.0000E+00  0.8000E+01
    -32.628  0.0000E+00  0.8000E+01
    -32.359  0.0000E+00  0.8000E+01
    -32.090  0.0000E+00  0.8000E+01
    -31.821  0.0000E+00  0.8000E+01
    -31.552  0.0000E+00  0.8000E+01
    -31.283  0.0000E+00  0.8000E+01
    -31.014  0.0000E+00  0.8000E+01
    -30.745  0.0000E+00  0.8000E+01
    -30.476  0.0000E+00  0.8000E+01
    -30.207  0.0000E+00  0.8000E+01
    -29.938  0.0000E+00  0.8000E+01
    -29.669  0.0000E+00  0.8000E+01
    -29.400  0.0000E+00  0.8000E+01
    -29.131  0.0000E+00  0.8000E+01
    -28.862  0.0000E+00  0.8000E+01
    -28.593  0.0000E+00  0.8000E+01
    -28.324  0.0000E+00  0.8000E+01
    -28.055  0.0000E+00  0.8000E+01
    -27.786  0.0000E+00  0.8000E+01
    -27.517  0.0000E+00  0.8000E+01
    -27.248  0.0000E+00  0.8000E+01
    -26.979  0.0000E+00  0.8000E+01
    -26.710  0.0000E+00  0.8000E+01
    -26.440  0.0000E+00  0.8000E+01
    -26.171  0.0000E+00  0.8000E+01
    -25.902  0.0000E+00  0.8000E+01
    -25.633  0.0000E+00  0.8000E+01
    -25.364  0.0000E+00  0.8000E+01
    -25.095  0.0000E+00  0.8000E+01
    -24.826  0.0000E+00  0.8000E+01
    -24.557  0.0000E+00  0.8000E+01
    -24.288  0.0000E+00  0.8000E+01
    -24.019  0.0000E+00  0.8000E+01
    -23.750  0.0000E+00  0.8000E+01
    -23.481  0.0000E+00  0.8000E+01
    -23.212  0.0000E+00  0.8000E+01
    -22.943  0.0000E+00  0.8000E+01
    -22.674  0.0000E+00  0.8000E+01
    -22.405  0.0000E+00  0.8000E+01
    -22.136  0.0000E+00  0.8000E+01
    -21.867  0.0000E+00  0.8000E+01
    -21.598  0.0000E+00  0.8000E+01
    -21.329  0.0000E+00  0.8000E+01
    -21.060  0.0000E+00  0.8000E+01
    -20.791  0.0000E+00  0.8000E+01
    -20.522  0.0000E+00  0.8000E+01
    -20.253  0.0000E+00  0.8000E+01
    -19.984  0.0000E+00  0.8000E+01
    -19.715  0.0000E+00  0.8000E+01
    -19.446  0.0000E+00  0.8000E+01
    -19.177  0.0000E+00  0.8000E+01
    -18.908  0.0000E+00  0.8000E+01
    -18.639  0.0000E+00  0.8000E+01
    -18.370  0.4888E+00  0.8040E+01
    -18.101  0.5333E+00  0.8181E+01
    -17.832  0.5897E+00  0.8333E+01
    -17.563  0.6639E+00  0.8502E+01
    -17.294  0.7765E+00  0.8694E+01
    -17.025  0.2271E+01  0.9094E+01
    -16.756  0.3212E+01  0.9807E+01
    -16.487  0.4947E+01  0.1097E+02
    -16.218  0.0000E+00  0.1200E+02
    -15.949  0.0000E+00  0.1200E+02
    -15.680  0.0000E+00  0.1200E+02
    -15.411  0.0000E+00  0.1200E+02
    -15.142  0.0000E+00  0.1200E+02
    -14.873  0.0000E+00  0.1200E+02
    -14.604  0.0000E+00  0.1200E+02
    -14.335  0.0000E+00  0.1200E+02
    -14.066  0.0000E+00  0.1200E+02
    -13.797  0.0000E+00  0.1200E+02
    -13.527  0.0000E+00  0.1200E+02
    -13.258  0.0000E+00  0.1200E+02
    -12.989  0.0000E+00  0.1200E+02
    -12.720  0.0000E+00  0.1200E+02
    -12.451  0.0000E+00  0.1200E+02
    -12.182  0.0000E+00  0.1200E+02
    -11.913  0.0000E+00  0.1200E+02
    -11.644  0.0000E+00  0.1200E+02
    -11.375  0.0000E+00  0.1200E+02
    -11.106  0.0000E+00  0.1200E+02
    -10.837  0.0000E+00  0.1200E+02
    -10.568  0.0000E+00  0.1200E+02
    -10.299  0.0000E+00  0.1200E+02
    -10.030  0.1006E+01  0.1209E+02
     -9.761  0.2079E+01  0.1251E+02
     -9.492  0.3530E+01  0.1341E+02
     -9.223  0.1735E+01  0.1442E+02
     -8.954  0.1002E+01  0.1485E+02
     -8.685  0.7256E+00  0.1508E+02
     -8.416  0.3512E+01  0.1529E+02
     -8.147  0.5039E+01  0.1662E+02
     -7.878  0.1114E+01  0.1729E+02
     -7.609  0.5133E+01  0.1781E+02
     -7.340  0.2763E+01  0.1907E+02
     -7.071  0.1653E+01  0.1967E+02
     -6.802  0.1132E+01  0.2008E+02
     -6.533  0.8005E+00  0.2053E+02
     -6.264  0.3440E+01  0.2134E+02
     -5.995  0.1834E+01  0.2252E+02
     -5.726  0.2060E+01  0.2308E+02
     -5.457  0.3183E+01  0.2369E+02
     -5.188  0.5680E+01  0.2428E+02
     -4.919  0.2463E+01  0.2514E+02
     -4.650  0.1497E+01  0.2568E+02
     -4.381  0.0000E+00  0.2600E+02
     -4.112  0.0000E+00  0.2600E+02
     -3.843  0.0000E+00  0.2600E+02
     -3.574  0.0000E+00  0.2600E+02
     -3.305  0.0000E+00  0.2600E+02
     -3.036  0.0000E+00  0.2600E+02
     -2.767  0.0000E+00  0.2600E+02
     -2.498  0.5278E+00  0.2609E+02
     -2.229  0.8632E+01  0.2695E+02
     -1.960  0.4143E+01  0.2812E+02
     -1.691  0.4406E+01  0.2959E+02
     -1.422  0.3078E+01  0.3047E+02
     -1.153  0.2330E+01  0.3128E+02
     -0.884  0.1614E+01  0.3185E+02
     -0.615  0.1617E+01  0.3226E+02
     -0.345  0.9617E+00  0.3261E+02
     -0.076  0.1923E+01  0.3337E+02
      0.193  0.1049E+01  0.3380E+02
      0.462  0.0000E+00  0.3400E+02
      0.731  0.0000E+00  0.3400E+02
      1.000  0.0000E+00  0.3400E+02
      1.269  0.6644E+00  0.3409E+02
      1.538  0.9019E+00  0.3428E+02
      1.807  0.2134E+01  0.3469E+02
      2.076  0.3085E+01  0.3542E+02
      2.345  0.3512E+01  0.3633E+02
      2.614  0.4298E+01  0.3741E+02
      2.883  0.4683E+01  0.3871E+02
      3.152  0.4515E+01  0.3992E+02
      3.421  0.6023E+01  0.4116E+02
      3.690  0.4994E+01  0.4256E+02
      3.959  0.5714E+01  0.4415E+02
      4.228  0.5540E+01  0.4565E+02
      4.497  0.5561E+01  0.4714E+02
      4.766  0.4415E+01  0.4848E+02
      5.035  0.4352E+01  0.4963E+02
      5.304  0.4690E+01  0.5086E+02
      5.573  0.3379E+01  0.5191E+02
      5.842  0.4242E+01  0.5287E+02
      6.111  0.3230E+01  0.5375E+02
      6.380  0.2887E+01  0.5454E+02
      6.649  0.1452E+01  0.5513E+02
      6.918  0.1186E+01  0.5548E+02
      7.187  0.8423E+00  0.5580E+02
      7.456  0.2202E+00  0.5594E+02
      7.725  0.9608E-01  0.5598E+02
      7.994  0.2542E-01  0.5600E+02
      8.263  0.0000E+00  0.5600E+02
      8.532  0.0000E+00  0.5600E+02
      8.801  0.0000E+00  0.5600E+02
      9.070  0.0000E+00  0.5600E+02
      9.339  0.0000E+00  0.5600E+02
      9.608  0.0000E+00  0.5600E+02
      9.877  0.0000E+00  0.5600E+02
     10.146  0.0000E+00  0.5600E+02
     10.415  0.0000E+00  0.5600E+02
     10.684  0.0000E+00  0.5600E+02
     10.953  0.0000E+00  0.5600E+02
     11.222  0.0000E+00  0.5600E+02
     11.491  0.0000E+00  0.5600E+02
     11.760  0.0000E+00  0.5600E+02
